Title="test case governed by poisson equation"
lengthx=12;lengthy=6;lx=60;ly=30;Emodule=1E6;Poisson=0.3"
Variables="x" "y" "u" "v" "sigamx"  "sigmay" "sigmaxy" "epsilongx" "epsilongy""epsilongxy"
ZONE T="flow-field", N=     1891,E=    1800,ET=QUADRILATERAL, F=FEPOINT
