TITLE="test case governed by poisson equation"
VARIABLES="x" "y" "u" "v" "sigax"  "sigmay" "sigmaxy"
ZONE T="flow-field", N=       21,E=      24,ET=TRIANGLE, F=FEPOINT
    0.000000e+00   -1.000000e+01    1.450814e-02   -6.493287e-02   -7.854635e+00   -7.854635e+00    7.854635e+00
    0.000000e+00    0.000000e+00    3.280493e-04   -6.520778e-02   -3.046673e+00    2.402450e+00    1.003543e+01
    0.000000e+00    1.000000e+01   -1.423854e-02   -6.471409e-02    3.305903e-02    4.946848e+00    4.570010e+00
    1.000000e+01   -1.000000e+01    1.423323e-02   -4.973168e-02   -3.068713e+00   -8.954485e-01    6.988761e+00
    1.000000e+01    0.000000e+00    1.829498e-04   -4.945299e-02   -2.142309e-01    2.510331e+00    3.708612e+00
    1.000000e+01    1.000000e+01   -1.383583e-02   -4.940913e-02    0.000000e+00    0.000000e+00    0.000000e+00
    2.000000e+01   -1.000000e+01    1.297449e-02   -3.504951e-02    0.000000e+00    0.000000e+00    0.000000e+00
    2.000000e+01    0.000000e+00    1.379823e-04   -3.466301e-02    0.000000e+00    0.000000e+00    0.000000e+00
    2.000000e+01    1.000000e+01   -1.267209e-02   -3.475563e-02    0.000000e+00    0.000000e+00    0.000000e+00
    3.000000e+01   -1.000000e+01    1.092243e-02   -2.199221e-02    0.000000e+00    0.000000e+00    0.000000e+00
    3.000000e+01    0.000000e+00    8.952326e-05   -2.148697e-02    0.000000e+00    0.000000e+00    0.000000e+00
    3.000000e+01    1.000000e+01   -1.070019e-02   -2.169580e-02    0.000000e+00    0.000000e+00    0.000000e+00
    4.000000e+01   -1.000000e+01    8.080847e-03   -1.134845e-02    0.000000e+00    0.000000e+00    0.000000e+00
    4.000000e+01    0.000000e+00    2.564199e-05   -1.072607e-02    0.000000e+00    0.000000e+00    0.000000e+00
    4.000000e+01    1.000000e+01   -7.909911e-03   -1.104798e-02    0.000000e+00    0.000000e+00    0.000000e+00
    5.000000e+01   -1.000000e+01    4.463831e-03   -3.883827e-03    0.000000e+00    0.000000e+00    0.000000e+00
    5.000000e+01    0.000000e+00   -6.635857e-05   -3.190690e-03    0.000000e+00    0.000000e+00    0.000000e+00
    5.000000e+01    1.000000e+01   -4.265075e-03   -3.663697e-03    0.000000e+00    0.000000e+00    0.000000e+00
    6.000000e+01   -1.000000e+01    0.000000e+00    0.000000e+00    0.000000e+00    0.000000e+00    0.000000e+00
    6.000000e+01    0.000000e+00    0.000000e+00    0.000000e+00    0.000000e+00    0.000000e+00    0.000000e+00
    6.000000e+01    1.000000e+01    0.000000e+00    0.000000e+00    0.000000e+00    0.000000e+00    0.000000e+00
       1       4       2
       4       5       2
       2       5       3
       5       6       3
       4       7       5
       7       8       5
       5       8       6
       8       9       6
       7      10       8
      10      11       8
       8      11       9
      11      12       9
      10      13      11
      13      14      11
      11      14      12
      14      15      12
      13      16      14
      16      17      14
      14      17      15
      17      18      15
      16      19      17
      19      20      17
      17      20      18
      20      21      18
