% Model:              FEM.mph
% Version:            COMSOL 6.1.0.252
% Date:               Feb 16 2024, 11:34
% Dimension:          3
% Nodes:              795
% Expressions:        4
% Description:        位移场，X 分量, 位移场，Y 分量, 位移场，Z 分量, von Mises 应力
% Length unit:        m
% X                       Y                        Z                        u (mm)                   v (mm)                   w (mm)                   solid.mises (N/m^2)
0                         0.06828527626681734      0.07678574681351863      0                        0                        0                        3896373.8253071806
0.05074367826385415       0.08932277506900721      0.05022934590762831      -0.1070635229775727      -0.002837134493613475    -0.042263167842200494    6617278.722347823
0                         0                        0                        0                        0                        0                        8985375.76034265
0                         0.1                      0                        0                        0                        0                        8289623.607099868
0                         0.13488379034407055      0.06491853358226111      0                        0                        0                        4322105.384692075
0                         0                        0.09999999999999996      0                        0                        0                        3909948.939107532
0.07084218847949889       0                        0.06335922201745484      -0.14650147524819065     -0.03799277423338736     -0.05260319038939332     6260882.180074862
0.06671257861605966       0.13745314746076154      0                        -0.2077757336871122      0.01848623960199292      -0.08844390220391186     9299426.97345369
0                         0.2                      0                        0                        0                        0                        8975748.155893745
0.08115074711258075       0.07700578424093081      0                        -0.24964301533452102     -0.012023705332133003    -0.10934908028585062     8942194.663398447
0.10000000000000003       0                        0                        -0.3102281923762041      -0.056040825312149       -0.12785096135477517     8628589.147414068
0.11724013803094097       0.04367035699966612      0.045576971937899384     -0.26905870204301496     -0.025433213673554576    -0.1460466616963098      6959503.157496108
0.13949295220116398       0.10030905774791976      0.06407112597559515      -0.2787132284940164      3.3506432442573686E-4    -0.19055928265971211     6164877.336747611
0.05584343109192674       0.1435169652229572       0.09231915682873086      -0.08344430728279174     0.01092415426089907      -0.03379415620916556     4730216.6747040935
0                         0.1280305162290639       0.14137364323627463      0                        0                        0                        1801466.600386788
0                         0.19999999999999998      0.09999999999999996      0                        0                        0                        3963195.5975369047
0.0765571173036971        0.2                      0.06665627002188668      -0.15343328302880185     0.03770106188537133      -0.05861437495613463     5807065.663805334
0                         0                        0.19999999999999998      0                        0                        0                        677458.5601628578
0                         0.0664055553130332       0.1702446853536444       0                        0                        0                        955448.5344801316
0.09309800035178242       0                        0.14982247025459516      -0.06757661691387831     -0.014985821507765314    -0.06343744135325848     2273305.5530236117
0.0553112929793749        0.06875408607150482      0.13772637430537116      -0.046790845611158205    -0.004373117186107085    -0.027147099115015748    2674293.01430975
0.1134675301723076        0.062016733081179096     0.1103263925200883       -0.14619952840055725     -0.010077388099973153    -0.11789281579838669     4124491.3056848696
0.07536377715641507       0                        0.25035768197347597      0.05508915996247799      0.014657416650109148     -0.038278873236813456    2165567.638774412
0.05131589607021675       0.056547553427539        0.21723129979303354      0.011959009232526331     0.0016130428361582898    -0.019967616642293393    865141.5901286919
0                         0                        0.29999999999999993      0                        0                        0                        3941882.5738196736
0                         0.069820116466058        0.26456487075202656      0                        0                        0                        1988801.847313255
0                         0.132262840664003        0.2333923151158943       0                        0                        0                        1053930.0895444048
0.06552208149149405       0.1336870518050912       0.18316524965880907      -0.014946330860912424    0.001355662653566767     -0.03466843119746799     916981.4598189165
0                         0.2                      0.19999999999999998      0                        0                        0                        649121.5922249886
0                         0.06354529828711127      0.3359649098766224       0                        0                        0                        4462418.790632763
0                         0                        0.4                      0                        0                        0                        9103544.842066787
0.06542811180731078       0                        0.3317820662943475       0.13079969806465105      0.03627137315196026      -0.04346809947393831     5984582.878050477
0.060990526819920676      0.07680988696341015      0.2935206086133437       0.07865759858189342      0.00529791254453942      -0.03817179825156459     4100448.563955851
0                         0.12671560146972954      0.32420337116167225      0                        0                        0                        3903093.599474078
0.04178164418787142       0.1083814385900459       0.3593428871807146       0.09436949379765071      -0.002134033551563694    -0.03560055329245921     6965160.08311634
0                         0.1                      0.4                      0                        0                        0                        8336009.680311904
0.1526596312765799        0                        0.06986463551636049      -0.29278824518396        -0.038408814550770616    -0.20631936221580846     5699452.332311945
0.16464832176791983       0.06862928071740214      0.14664058491343998      -0.1269978967006278      -0.004976748064728239    -0.22950781768412537     2467706.5415806663
0.15594871772620922       0.058314913342474545     0                        -0.4710946219371629      -0.024166361783595852    -0.26005246428004125     8778260.886189703
0.09999999999999964       0.2                      0                        -0.31023954273535975     0.057483588754172095     -0.12693677562248318     8635976.801509252
0.11730601950519282       0.15520370998085925      0.08286170414428938      -0.20032217380276773     0.01968090219656512      -0.13130780086980612     5329009.032726446
0.15881523784473722       0.12617743712531773      0                        -0.4792975110245585      0.015838443650605546     -0.268820769432161       8781243.280731952
0.2                       0                        0                        -0.5982070409269157      -0.05730789552768039     -0.37431305420926        8562036.624744833
0.1136460682672949        0.05475443854946405      0.327173946375657        0.21094955341190197      0.017183920288165015     -0.12886006063410488     5829731.416059101
0.1482404684504397        0                        0.3157498420980729       0.25167938880560786      0.034516697117465196     -0.18998775707537782     5090796.964478352
0.10000000000000003       0                        0.4000000000000001       0.31031834471106906      0.05710585056433321      -0.1272359308717859      8668547.495724354
0.19844813865030592       0.05843981058929291      0.06694141870322076      -0.3880563467204173      -0.015936013161839496    -0.34910847503494935     5785416.742858615
0.22317084134460208       0.04775256603767471      0.13251116048034528      -0.21843422706894616     -0.01008558815750513     -0.41150223570095595     2959908.6980740814
0.20789823186277623       0                        0.1623287082791759       -0.11323625037794434     -0.010862801814949957    -0.3443040452451011      1763219.6905625265
0.14757874194999943       0                        0.22925037312583446      0.062192213608093655     0.008897936903421942     -0.17002203413053518     1433705.8101635808
0.09251920357176645       0.2                      0.15581583790339026      -0.05945232713613078     0.013487644027451113     -0.06178191208933474     2030400.6368347288
0.158536113689971         0.2                      0.07289181340237505      -0.29644419860375115     0.03786219173578819      -0.21988633745920746     5575642.898420238
0.12749411294129112       0.12014396510818023      0.13539280699702752      -0.11802613630171843     0.0041502434916228645    -0.14233362358409665     3003631.6991931405
0.11423789362765085       0.08253841335133319      0.21239787292023488      0.02006365285058086      7.330516519648281E-4     -0.11002156626914737     903048.6970095335
0.15264419327779846       0.04790602947927537      0.27366490038729097      0.16296419931408387      0.011687050784815101     -0.19963658664705075     3342147.472131755
0.20644114403525152       0                        0.2522978530573215       0.15617000252255833      0.01520087979570705      -0.34134679319222316     2345416.405002616
0.15701550552177576       0.16393287818084232      0.175782350313396        -0.054852351813214115    0.004847329371998081     -0.2017891161105521      1266181.0594157274
0.20092909774922382       0.1002264607945587       0.21851219246504516      0.05383668808068536      2.1729755546479366E-5    -0.33420765012068243     1062067.3852726165
0.06167731690774364       0.14419135286410242      0.2748712866693114       0.063480805844208        -0.008283633620690518    -0.03465843965971894     3301279.041810315
0                         0.2                      0.29999999999999993      0                        0                        0                        4000853.025752332
0.07617545456840134       0.2                      0.2555982861850867       0.06132220560164252      -0.01570369420228036     -0.03992417006969673     2362272.9546547914
0.1265949176304683        0.1418742115503881       0.2329355140597495       0.05962839158233923      -0.004217640143359286    -0.13443401453299136     1619219.9608933325
0.14908403725473676       0.2                      0.23159079762584672      0.06792733835089787      -0.009490993503183805    -0.17377051208598193     1525527.1738734639
0.08206059529000741       0.07871591266149397      0.4                      0.2534653316689886       0.011425385417954324     -0.1121408119058927      9234014.740058104
0.06654523823805363       0.2                      0.327991191072187        0.12896660133540055      -0.03554930821682044     -0.04413088737066169     5873332.699161033
0.0687638891535201        0.13798923912990493      0.4                      0.21319283162133515      -0.018971875108203896    -0.090575721493369       8983624.390266633
0.09173111448417287       0.12659875613446167      0.3267501588152261       0.167312376000718        -0.009368307720343206    -0.09071615894356701     5821882.766785515
0                         0.2                      0.4                      0                        0                        0                        8998283.05666906
0.25325279295869835       0                        0.07714332695120403      -0.4527845118090151      -0.03443507788237244     -0.528842678327181       5194844.652601806
0.20660257956117756       0.1318347267120111       0.06757410382141357      -0.4016533471031688      0.012469643207814797     -0.37611808180617184     5741064.557446411
0.22718317233456276       0.06802951323814062      0                        -0.6761776075177174      -0.01800461214753318     -0.47866092192090615     8517140.373611065
0.2000000000000002        0.2                      0                        -0.5981365323467718      0.05788172272675058      -0.3741015812170994      8566704.717989836
0.2581989229780183        0.1331868186680963       0                        -0.7635386638191288      0.01891804015563067      -0.595729324804454       8399009.63265862
0.28485209288210567       0.08899528102892751      0.03951990195143976      -0.6671123774341914      -0.004710077003156852    -0.6889577689379819      6672967.107493977
0.30000000000000004       0                        0                        -0.87879210468021        -0.05478023972496772     -0.762956049356941       8245177.502849653
0.15057601705568163       0.11891741527080307      0.3461967148837391       0.3253714175526498       -0.008260197536227141    -0.2210191301803945      6552098.7498909505
0.2166292527282382        0.0427601190008118       0.2975724390403458       0.3079665559473898       0.016137063023114132     -0.39507818209551193     4233456.317637348
0.15410238411153046       0.05861576407301508      0.4                      0.465773187828118        0.024403183717543988     -0.25535823032995186     8775057.186683673
0.2                       0                        0.3999999999999999       0.5981625668877165       0.05752792094968562      -0.37424369656689066     8568336.346454851
0.19694585750365326       0.08426205750439654      0.3316211988473252       0.3807050857471435       0.006028068544112335     -0.3458477260059913      5745523.160481219
0.2457314831789429        0                        0.3180079677540947       0.4219716564379062       0.03334939955012851      -0.4978176704334026      5015834.982752933
0.3187051328719249        0.04342188829356646      0.08299400660607457      -0.5373784733637769      -0.017937005258438006    -0.824422390784958       4805808.383451075
0.3169924624629301        0                        0.15280484389957025      -0.21416820570236425     -0.012830194414442797    -0.791184101257207       2037883.7673315704
0.2647219819408239        0.06255922699109859      0.09471017436751446      -0.40448778560733706     -0.010939274790187222    -0.5813484913114699      4445918.481121407
0.26017145110688417       0.2                      0.07798768487272763      -0.4613269029851092      0.03443691588861481      -0.5560101424398628      5145500.864876292
0.2578812744419119        0.15515523957492958      0.11560690486319385      -0.3152068782226769      0.013258142001739208     -0.5455892412056595      3602259.425389776
0.2915891404978641        0                        0.23093827905775136      0.1294589019193389       0.008563442814031041     -0.6708470373273777      1455247.8819661308
0.26053125369722957       0.05598469006357684      0.2181644465892216       0.06824962757466829      0.0022761480753634867    -0.5482981623501927      1016948.182922897
0.2095739920466677        0.2                      0.16122539502611996      -0.11740854744498615     0.0113220925965051       -0.3498407280917896      1809089.3903309342
0.20469641360486818       0.13721217275518244      0.14274877257595253      -0.16988270034495956     0.006360920817939776     -0.3486901194110079      2562068.3474492826
0.21065593313292333       0.2                      0.2545343330304807       0.16630686155456423      -0.015798548852316817    -0.3556357809186616      2441943.057826848
0.1836813994415308        0.14265006178350276      0.26478423705875076      0.17266929586435784      -0.008242945239330474    -0.2839903474227097      2917986.859371262
0.25658485547946225       0.13784940114756555      0.23371337266718306      0.12485288889955132      -0.003605442531799846    -0.5341982305281554      1566637.9431470118
0.15245669608516615       0.2                      0.3138238626408292       0.2546110416160933       -0.034017440070945905    -0.19983566441651218     5015357.942578734
0.15927552368665587       0.12613268067094816      0.4                      0.48054072653078533      -0.015405666498212667    -0.27001506208526976     8786449.451829167
0.09999999999999964       0.2                      0.4                      0.3104376741016441       -0.05645166082021942     -0.12774896218674678     8703087.10247282
0.3562335391561286        0                        0.07619780726137018      -0.6313343510671955      -0.033072549976240186    -1.0092090328917678      4993543.755147443
0.32834168650303025       0.06484782889660966      0                        -0.9570234637834415      -0.018881855460465644    -0.9101831408796529      8137409.720490731
0.3331728520928924        0.12723901063311355      0.060208824759749924     -0.6715281558059405      0.010464403727817071     -0.9072498383578302      5688636.930322045
0.2999999999999998        0.2                      0                        -0.8787128466327233      0.05524327942113213      -0.7627374930579317      8242123.172196197
0.36265813978773154       0.13317738979697955      0                        -1.0494146738800334      0.017909925264855738     -1.0886555136205496      8009864.6045433665
0.3958841905063723        0.05870118740704258      0.07064378242239094      -0.7287929939359539      -0.01394415899129065     -1.2450008368446825      5115236.126389737
0.4000000000000001        0                        0                        -1.1475179348844817      -0.05232912884475765     -1.289035087664467       7874820.910143613
0.30270901776808246       0.061851237809881325     0.3249617393814264       0.5471565716871828       0.013045187891035372     -0.7535999291475463      5165933.271015415
0.2346204709262132        0.06846695378182809      0.4                      0.6972572602170268       0.017909140423519213     -0.5055574758897822      8491739.81748103
0.21396769519687595       0.14954508543154205      0.35275833398329337      0.4817373597338798       -0.021873549771117606    -0.40695722872452406     6560689.294933666
0.30000000000000004       0                        0.4                      0.878732850634396        0.05489428813337265      -0.7629161875361054      8246675.327588198
0.3436679259650099        0                        0.31540830416145504      0.5684393703789777       0.031030108240077573     -0.940142772240447       4692070.160131109
0.3593706855052652        0.2                      0.07664902571134254      -0.6341180359005029      0.033128174363429366     -1.0257706499735233      4971007.543373148
0.33725152316862933       0.06259133224120512      0.23682412214980078      0.17733278078975145      0.0036923183694710653    -0.9024330304191822      1624504.7104036568
0.37787535577179665       0.04702852641150121      0.16709088991959234      -0.17643046134096527     -0.004606867357361293    -1.1189364509439945      1460628.7887783644
0.42028365753083413       0                        0.1559615802134774       -0.2604586218843784      -0.011433522654222704    -1.3624863035164645      1834496.6543914743
0.38640695469606534       0                        0.22895958717711698      0.15831950682598342      0.007617533338909076     -1.1579032204114308      1332041.7011119216
0.31796372499201486       0.2                      0.1531880683442438       -0.21296867313826268     0.01284537437543917      -0.7956669269146511      2022217.1576113142
0.28667714580568576       0.15066659465810622      0.17934709362454587      -0.085099522143514       0.0029555258284533624    -0.6583538827995845      1076240.681213101
0.3377086335512052        0.14946354724302255      0.12008551239459196      -0.38623391918074934     0.010785566617210258     -0.9100926638554776      3286816.059839151
0.3744785350276014        0.05807041497931213      0.3131097795399154       0.6042601711073561       0.012513084536036386     -1.1167714525157604      4530728.465185555
0.28984936581193316       0.2                      0.2321202685323725       0.13372540613403378      -0.0089048766178071      -0.6629736090736086      1499261.8007411682
0.318903155954403         0.14069434776479767      0.24514868060405173      0.20626659274385128      -0.005056736863941549    -0.8114669785244524      1952463.262150404
0.2500000442510807        0.2                      0.32110791887867063      0.4406937954044159       -0.03423039582956543     -0.515302263085727       5132410.309525062
0.2648902451792111        0.13812346200436956      0.4                      0.7822968573348975       -0.02143699944474877     -0.6223317968261276      8374404.75415886
0.25559039596083677       0.10157754483968778      0.2932438374601102       0.3458414515918784       -4.430247399092585E-4    -0.5429306601574684      3971313.181215631
0.2000000000000002        0.2                      0.4                      0.5982098285177155       -0.05766560942978937     -0.37415198629009366     8568547.757533768
0.45882514283608966       0                        0.08141924665908407      -0.7635140141430589      -0.03019829383543338     -1.6271374498473097      4558267.084435253
0.45719371230835404       0.052286052378101536     0.11427707691591693      -0.5492450496814564      -0.010424032768903748    -1.617471624464085       3332218.956071697
0.4302666351560495        0.06718553996906794      0                        -1.2271921961667314      -0.01683200116366998     -1.4859062341281792      7758224.542426497
0.42509149965614806       0.13127511453174193      0.06679309630824722      -0.8016772934251232      0.010890533306031234     -1.4246054523334173      5193437.865897252
0.3999999999999999        0.2                      0                        -1.1474209716847692      0.052660883711240135     -1.2888604230190184      7870712.490595789
0.463907363120043         0.13361801641567145      0                        -1.3134688205766845      0.01723584136765274      -1.7055461507075347      7633209.057621409
0.47409748985605227       0.0564068116710254       0.04847129892406422      -1.0088316348685944      -0.016653237675614614    -1.752503800521871       5764291.536268522
0.5000000000000001        0                        0                        -1.4037472361439625      -0.0499088032425875      -1.9463866250409327      7497892.922456114
0.3083055417704769        0.13616419462280105      0.3342313610396527       0.5988688515579869       -0.013392266493538104    -0.7831607912463993      5529879.410380838
0.33493067947937727       0.06635254216156743      0.4                      0.9749199997842113       0.01807993372920933      -0.9433108709001629      8108067.321749227
0.4000000000000001        0                        0.4                      1.1474334166363003       0.05231020171643312      -1.2890227115338055      7867759.866007946
0.5222814261131113        0                        0.16237216969451337      -0.2711741854222382      -0.009330734984084947    -2.0624577549762964      1537156.686549198
0.48743659190806987       0.0523319018860498       0.1723344823257669       -0.18741690641498074     -0.003355073191610061    -1.8171713652462038      1230463.0375880997
0.4440912212752304        0                        0.31358455387518713      0.709525709558857        0.029053345171850656     -1.5282314881437515      4405434.962962024
0.48547060977762896       0                        0.23372282818556306      0.22748791153997894      0.00838206476210736      -1.7940479199775827      1434333.3871616574
0.4624994868874186        0.2                      0.08102452040810633      -0.7715502621774862      0.030368045769451634     -1.6518204533668415      4568620.467198153
0.42628854660094473       0.1416753106385858       0.1311587521709237       -0.41325856878610173     0.007466598005646894     -1.4142575776332253      2734065.346390125
0.4217634558275556        0.2                      0.1574079485261195       -0.2526226919200791      0.011072473926472757     -1.3713587684076889      1780041.748278039
0.37084005667119585       0.14173788898165693      0.20756917003338787      0.039862401787111056     -8.593850701325467E-4    -1.0794450690647854      720314.4945751284
0.4812536607878168        0.17290216784558676      0.1314317269759976       -0.45964369287800966     0.012595876690732368     -1.774652898002813       2658198.6120365676
0.42457217357509136       0.07041467014565031      0.24454918682414128      0.26622219543787895      0.0033565569742162312    -1.401081235919996       1845499.4656049034
0.5013135720570678        0.05593050469476632      0.2707020637988722       0.4919468331874005       0.007676538980491662     -1.9221681663850965      2708924.729189419
0.43420758588468944       0.05807827918305495      0.3376945218258704       0.8451962338993098       0.014742640209219037     -1.482882409787816       5339020.539522147
0.38601495415108716       0.2                      0.23147961824595278      0.1720664869447382       -0.008353144293594978    -1.15568232048572        1420189.8656985983
0.438090755992656         0.1447484156043536       0.25791142281143214      0.35629722580051415      -0.006758878722570406    -1.4872376949263293      2322863.727538388
0.3436191398253556        0.2                      0.31635541787906823      0.573207921458322        -0.03144656743879559     -0.9400454491109665      4731060.660999196
0.36844165388719774       0.11554039322714768      0.27728261199243587      0.4054904745372811       -0.003259551939064658    -1.0760969473746962      3134269.5420464976
0.40858623641694836       0.137248936551536        0.3328910301707212       0.7711498933146168       -0.013054311242714167    -1.3223622533558388      5223640.51015182
0.36329547904037157       0.13158982614022105      0.4                      1.0511755370909195       -0.017014886000563577    -1.0922712355692956      8012631.13793426
0.2999999999999998        0.2                      0.4                      0.8788254975505126       -0.05511719702826783     -0.7628099021930376      8244245.532656103
0.5466762326493053        0.054325010996364435     0.08183180836497132      -0.8909233048694215      -0.013179224367602646    -2.2741684816219094      4350829.3601048775
0.562438669896532         0                        0.08194878836950348      -0.9121612853515133      -0.028608637507581445    -2.3890301055808014      4310241.785982981
0.5309984910081872        0.06637951579345606      0                        -1.4814475407066354      -0.016450894824198977    -2.186689372797432       7382013.502422258
0.5131429213925636        0.11290660630472171      0.04502613849782516      -1.1081289287098375      0.005025600160844499     -2.034461485502777       5781097.2109232675
0.5                       0.2                      0                        -1.403664386892985       0.05010593060537099      -1.9462067758014314      7496944.9212592505
0.5650336129868427        0.13330495074284296      0                        -1.5644093008406037      0.016211258747056066     -2.451939279724904       7254647.613337003
0.5993400248925107        0.10839194686760407      0.07367855511155331      -1.0332068226900966      0.0025121239250103567    -2.7061957364611304      4513937.041834855
0.6000000000000001        0                        0                        -1.6475053518287004      -0.047514717056563835    -2.7285183771436574      7132883.367332686
0.43335399948228215       0.06627942590497941      0.4                      1.2351721965633493       0.01723603140530686      -1.505373585041679       7745400.929622966
0.49860380499658075       0.0449226225194308       0.34749231496435706      1.0268722954984644       0.020144577595551334     -1.9221720056005114      5541586.026274476
0.5000000000000001        0                        0.4                      1.4036452581961891       0.04978145180085946      -1.9463659334769872      7501089.013576507
0.6600436716930542        0                        0.07749675476411233      -1.0878681845385443      -0.028328695847775868    -3.226705093377617       4219903.064825772
0.5626134871825109        0.2                      0.08313295975174412      -0.9030569664388558      0.02833872461248695      -2.389887952752969       4267009.142106175
0.5222507062520523        0.14235140857230305      0.09969108986229278      -0.7252703506473286      0.010525773114060331     -2.082897961995667       3748786.844558758
0.5696350039687177        0.04627686124409236      0.18999911688974222      -0.0779134754692288      -0.0013694000315895916   -2.438904617363781       760771.4612673401
0.6319976943336068        0.043696998977814795     0.11927516613190489      -0.6891997096050667      -0.010699145852219712    -2.9734069928530142      2848671.4345267434
0.6177409790010516        0                        0.1665374104272569       -0.2795208791372797      -0.007958403325492566    -2.834745265908944       1343635.1288150435
0.5844866314070697        0                        0.2402656252102598       0.3205960855884612       0.009473981158733215     -2.553648909377567       1578483.4957144794
0.5474452550934478        0                        0.31387658546324104      0.858834596948775        0.027635744623953414     -2.269363203267795       4196197.799148919
0.5657664119824369        0.0558421306006122       0.32633034417200474      0.9823433164961839       0.013310188825863715     -2.4277964068044104      4595893.990103278