TITLE="test case governed by poisson equation"
VARIABLES="x" "y" "u" "v" "sigax"  "sigmay" "sigmaxy"
ZONE T="flow-field", N=     1225,E=    1152,ET=QUADRILATERAL, F=FEPOINT
    0.000000e+00    0.000000e+00    0.000000e+00    0.000000e+00   -1.999093e+00   -7.372575e-18   -1.819057e-01
    0.000000e+00    1.666667e-01    8.432608e-17    0.000000e+00   -1.473742e+00   -1.084202e-18   -2.007477e-01
    0.000000e+00    3.333333e-01    1.815060e-16    0.000000e+00   -1.222921e+00    2.385245e-18   -2.332115e-01
    0.000000e+00    5.000000e-01    4.543341e-18    0.000000e+00   -1.029303e+00   -1.951564e-18   -2.579772e-01
    0.000000e+00    6.666667e-01   -1.364667e-17    0.000000e+00   -8.722261e-01   -5.637851e-18   -2.780968e-01
    0.000000e+00    8.333333e-01   -7.932861e-17    0.000000e+00   -7.369794e-01   -4.662069e-18   -2.942011e-01
    0.000000e+00    1.000000e+00    1.225680e-18    0.000000e+00   -6.166374e-01   -1.517883e-18   -3.067960e-01
    0.000000e+00    1.166667e+00    1.482667e-17    0.000000e+00   -5.065956e-01    5.149960e-18   -3.161966e-01
    0.000000e+00    1.333333e+00    1.779271e-18    0.000000e+00   -4.036425e-01    7.697835e-18   -3.226342e-01
    0.000000e+00    1.500000e+00    2.241776e-17    0.000000e+00   -3.053230e-01    1.836367e-18   -3.263007e-01
    0.000000e+00    1.666667e+00    2.135654e-18    0.000000e+00   -2.096624e-01   -1.761829e-19   -3.273733e-01
    0.000000e+00    1.833333e+00   -7.011079e-18    0.000000e+00   -1.150036e-01    7.291260e-18   -3.260274e-01
    0.000000e+00    2.000000e+00   -4.120254e-18    0.000000e+00   -1.991239e-02    2.493665e-18   -3.224442e-01
    0.000000e+00    2.166667e+00   -3.605429e-19    0.000000e+00    7.688640e-02   -7.589415e-18   -3.168113e-01
    0.000000e+00    2.333333e+00    1.033349e-17    0.000000e+00    1.765582e-01   -4.174178e-18   -3.093200e-01
    0.000000e+00    2.500000e+00    6.006972e-18    0.000000e+00    2.802072e-01   -9.432559e-18   -3.001569e-01
    0.000000e+00    2.666667e+00   -1.431824e-17    0.000000e+00    3.889378e-01   -1.073360e-17   -2.894897e-01
    0.000000e+00    2.833333e+00   -5.079810e-17    0.000000e+00    5.039447e-01   -3.144186e-18   -2.774474e-01
    0.000000e+00    3.000000e+00   -1.951016e-17    0.000000e+00    6.266646e-01   -3.686287e-18   -2.640913e-01
    0.000000e+00    3.166667e+00    9.242853e-18    0.000000e+00    7.590312e-01   -5.529431e-18   -2.493756e-01
    0.000000e+00    3.333333e+00    4.965691e-17    0.000000e+00    9.040379e-01   -2.927346e-18   -2.330910e-01
    0.000000e+00    3.500000e+00   -5.148005e-17    0.000000e+00    1.066558e+00   -2.385245e-18   -2.147573e-01
    0.000000e+00    3.666667e+00    6.008350e-17    0.000000e+00    1.257885e+00   -5.421011e-18   -1.936618e-01
    0.000000e+00    3.833333e+00    1.411053e-16    0.000000e+00    1.494400e+00    6.505213e-19   -1.669920e-01
    0.000000e+00    4.000000e+00    0.000000e+00    0.000000e+00    1.952768e+00    7.806256e-18   -1.516570e-01
    8.333333e-02    0.000000e+00   -1.665910e-01   -3.031762e-02   -1.916953e+00   -1.884194e-02   -1.024555e-01
    8.333333e-02    1.666667e-01   -1.228119e-01   -3.345795e-02   -1.468471e+00   -2.565288e-02   -1.451174e-01
    8.333333e-02    3.333333e-01   -1.019101e-01   -3.886858e-02   -1.213055e+00   -2.861475e-02   -2.053394e-01
    8.333333e-02    5.000000e-01   -8.577522e-02   -4.299620e-02   -1.022954e+00   -2.244266e-02   -2.364608e-01
    8.333333e-02    6.666667e-01   -7.268551e-02   -4.634947e-02   -8.670569e-01   -1.811194e-02   -2.603782e-01
    8.333333e-02    8.333333e-01   -6.141495e-02   -4.903351e-02   -7.329836e-01   -1.434959e-02   -2.787965e-01
    8.333333e-02    1.000000e+00   -5.138645e-02   -5.113267e-02   -6.135965e-01   -1.099777e-02   -2.929626e-01
    8.333333e-02    1.166667e+00   -4.221630e-02   -5.269944e-02   -5.044187e-01   -7.919097e-03   -3.034346e-01
    8.333333e-02    1.333333e+00   -3.363687e-02   -5.377237e-02   -4.022550e-01   -5.052065e-03   -3.105843e-01
    8.333333e-02    1.500000e+00   -2.544359e-02   -5.438346e-02   -3.046667e-01   -2.369524e-03   -3.146817e-01
    8.333333e-02    1.666667e+00   -1.747187e-02   -5.456221e-02   -2.096843e-01    1.366708e-04   -3.159540e-01
    8.333333e-02    1.833333e+00   -9.583634e-03   -5.433790e-02   -1.156528e-01    2.464543e-03   -3.146107e-01
    8.333333e-02    2.000000e+00   -1.659365e-03   -5.374069e-02   -2.113772e-02    4.608057e-03   -3.108572e-01
    8.333333e-02    2.166667e+00    6.407200e-03   -5.280188e-02    7.513627e-02    6.562070e-03   -3.048988e-01
    8.333333e-02    2.333333e+00    1.471318e-02   -5.155334e-02    1.743335e-01    8.327202e-03   -2.969392e-01
    8.333333e-02    2.500000e+00    2.335060e-02   -5.002615e-02    2.775542e-01    9.915148e-03   -2.871709e-01
    8.333333e-02    2.666667e+00    3.241148e-02   -4.824829e-02    3.858933e-01    1.135472e-02   -2.757593e-01
    8.333333e-02    2.833333e+00    4.199539e-02   -4.624124e-02    5.005292e-01    1.269921e-02   -2.628156e-01
    8.333333e-02    3.000000e+00    5.222205e-02   -4.401522e-02    6.228682e-01    1.403590e-02   -2.483584e-01
    8.333333e-02    3.166667e+00    6.325260e-02   -4.156261e-02    7.548083e-01    1.550014e-02   -2.322435e-01
    8.333333e-02    3.333333e+00    7.533650e-02   -3.884851e-02    8.992104e-01    1.730920e-02   -2.140726e-01
    8.333333e-02    3.500000e+00    8.887985e-02   -3.579288e-02    1.061086e+00    1.971461e-02   -1.927605e-01
    8.333333e-02    3.666667e+00    1.048237e-01   -3.227697e-02    1.249795e+00    2.388260e-02   -1.666986e-01
    8.333333e-02    3.833333e+00    1.245333e-01   -2.783201e-02    1.490161e+00    2.100241e-02   -1.177066e-01
    8.333333e-02    4.000000e+00    1.627306e-01   -2.527617e-02    1.886068e+00    1.533505e-02   -8.313210e-02
    1.666667e-01    0.000000e+00   -3.194921e-01   -7.793103e-02   -1.770672e+00   -1.669151e-02   -9.411206e-02
    1.666667e-01    1.666667e-01   -2.447452e-01   -8.071294e-02   -1.446756e+00   -2.710129e-02   -1.391706e-01
    1.666667e-01    3.333333e-01   -2.021758e-01   -8.696479e-02   -1.195180e+00   -3.815884e-02   -2.043490e-01
    1.666667e-01    5.000000e-01   -1.704924e-01   -9.343256e-02   -1.009883e+00   -3.602422e-02   -2.381244e-01
    1.666667e-01    6.666667e-01   -1.445095e-01   -9.897286e-02   -8.568355e-01   -3.044742e-02   -2.622362e-01
    1.666667e-01    8.333333e-01   -1.221639e-01   -1.035817e-01   -7.250085e-01   -2.484204e-02   -2.807488e-01
    1.666667e-01    1.000000e+00   -1.022661e-01   -1.072535e-01   -6.075460e-01   -1.931384e-02   -2.948903e-01
    1.666667e-01    1.166667e+00   -8.406979e-02   -1.100196e-01   -5.000904e-01   -1.398273e-02   -3.053124e-01
    1.666667e-01    1.333333e+00   -6.704250e-02   -1.119144e-01   -3.995063e-01   -8.870269e-03   -3.123928e-01
    1.666667e-01    1.500000e+00   -5.077778e-02   -1.129764e-01   -3.033815e-01   -4.000567e-03   -3.164061e-01
    1.666667e-01    1.666667e+00   -3.494739e-02   -1.132480e-01   -2.097579e-01    5.997296e-04   -3.175799e-01
    1.666667e-01    1.833333e+00   -1.927546e-02   -1.127765e-01   -1.169834e-01    4.900495e-03   -3.161240e-01
    1.666667e-01    2.000000e+00   -3.522953e-03   -1.116145e-01   -2.362279e-02    8.871839e-03   -3.122454e-01
    1.666667e-01    2.166667e+00    1.252271e-02   -1.098192e-01    7.160051e-02    1.248912e-02   -3.061525e-01
    1.666667e-01    2.333333e+00    2.905559e-02   -1.074514e-01    1.698495e-01    1.573925e-02   -2.980545e-01
    1.666667e-01    2.500000e+00    4.625903e-02   -1.045728e-01    2.722169e-01    1.862786e-02   -2.881518e-01
    1.666667e-01    2.666667e+00    6.431555e-02   -1.012421e-01    3.797802e-01    2.118696e-02   -2.766199e-01
    1.666667e-01    2.833333e+00    8.342153e-02   -9.751047e-02    4.936850e-01    2.348222e-02   -2.635820e-01
    1.666667e-01    3.000000e+00    1.038114e-01   -9.341474e-02    6.152824e-01    2.561621e-02   -2.490662e-01
    1.666667e-01    3.166667e+00    1.258014e-01   -8.897174e-02    7.463762e-01    2.773070e-02   -2.329376e-01
    1.666667e-01    3.333333e+00    1.498684e-01   -8.417117e-02    8.896729e-01    2.992389e-02   -2.147341e-01
    1.666667e-01    3.500000e+00    1.768477e-01   -7.899711e-02    1.049885e+00    3.233462e-02   -1.933941e-01
    1.666667e-01    3.666667e+00    2.082991e-01   -7.339296e-02    1.235192e+00    3.242444e-02   -1.653906e-01
    1.666667e-01    3.833333e+00    2.483601e-01   -6.818896e-02    1.472693e+00    2.245496e-02   -1.126330e-01
    1.666667e-01    4.000000e+00    3.143447e-01   -6.590798e-02    1.767309e+00    1.368592e-02   -7.624548e-02
    2.500000e-01    0.000000e+00   -4.617031e-01   -1.364353e-01   -1.655515e+00   -1.242614e-02   -8.220406e-02
    2.500000e-01    1.666667e-01   -3.639379e-01   -1.385063e-01   -1.408292e+00   -2.302816e-02   -1.307707e-01
    2.500000e-01    3.333333e-01   -3.011068e-01   -1.441113e-01   -1.177608e+00   -3.809364e-02   -2.020940e-01
    2.500000e-01    5.000000e-01   -2.540891e-01   -1.512042e-01   -9.963812e-01   -4.144326e-02   -2.393762e-01
    2.500000e-01    6.666667e-01   -2.154914e-01   -1.579257e-01   -8.465951e-01   -3.760195e-02   -2.646119e-01
    2.500000e-01    8.333333e-01   -1.822497e-01   -1.637381e-01   -7.170445e-01   -3.165234e-02   -2.834798e-01
    2.500000e-01    1.000000e+00   -1.526441e-01   -1.684765e-01   -6.015298e-01   -2.503166e-02   -2.977431e-01
    2.500000e-01    1.166667e+00   -1.255647e-01   -1.720820e-01   -4.958066e-01   -1.821835e-02   -3.081691e-01
    2.500000e-01    1.333333e+00   -1.002213e-01   -1.745493e-01   -3.968111e-01   -1.145308e-02   -3.151913e-01
    2.500000e-01    1.500000e+00   -7.600718e-02   -1.758997e-01   -3.021587e-01   -4.872075e-03   -3.191024e-01
    2.500000e-01    1.666667e+00   -5.243152e-02   -1.761733e-01   -2.099031e-01    1.424805e-03   -3.201381e-01
    2.500000e-01    1.833333e+00   -2.908086e-02   -1.754248e-01   -1.183946e-01    7.355268e-03   -3.185131e-01
    2.500000e-01    2.000000e+00   -5.596497e-03   -1.737216e-01   -2.619608e-02    1.284838e-02   -3.144382e-01
    2.500000e-01    2.166667e+00    1.834062e-02   -1.711420e-01    6.797167e-02    1.784567e-02   -3.081280e-01
    2.500000e-01    2.333333e+00    4.302143e-02   -1.677730e-01    1.652719e-01    2.230576e-02   -2.997997e-01
    2.500000e-01    2.500000e+00    6.872008e-02   -1.637067e-01    2.667918e-01    2.621056e-02   -2.896653e-01
    2.500000e-01    2.666667e+00    9.570818e-02   -1.590362e-01    3.735931e-01    2.957081e-02   -2.779133e-01
    2.500000e-01    2.833333e+00    1.242762e-01   -1.538498e-01    4.867893e-01    3.242683e-02   -2.646800e-01
    2.500000e-01    3.000000e+00    1.547691e-01   -1.482272e-01    6.076759e-01    3.483849e-02   -2.500002e-01
    2.500000e-01    3.166667e+00    1.876486e-01   -1.422370e-01    7.379533e-01    3.683262e-02   -2.337156e-01
    2.500000e-01    3.333333e+00    2.236153e-01   -1.359497e-01    8.801768e-01    3.829216e-02   -2.152897e-01
    2.500000e-01    3.500000e+00    2.638607e-01   -1.294729e-01    1.038452e+00    3.835881e-02   -1.932386e-01
    2.500000e-01    3.666667e+00    3.106891e-01   -1.231634e-01    1.221011e+00    3.322128e-02   -1.627199e-01
    2.500000e-01    3.833333e+00    3.699822e-01   -1.183992e-01    1.441827e+00    1.946256e-02   -1.053902e-01
    2.500000e-01    4.000000e+00    4.572821e-01   -1.166759e-01    1.673929e+00    1.033969e-02   -6.637486e-02
    3.333333e-01    0.000000e+00   -5.954112e-01   -2.030976e-01   -1.562177e+00   -9.022469e-03   -7.234668e-02
    3.333333e-01    1.666667e-01   -4.794606e-01   -2.046013e-01   -1.362277e+00   -1.846884e-02   -1.218473e-01
    3.333333e-01    3.333333e-01   -3.984439e-01   -2.092539e-01   -1.156235e+00   -3.429290e-02   -1.974105e-01
    3.333333e-01    5.000000e-01   -3.365559e-01   -2.160323e-01   -9.821943e-01   -4.152794e-02   -2.394289e-01
    3.333333e-01    6.666667e-01   -2.856087e-01   -2.230965e-01   -8.359642e-01   -4.039897e-02   -2.667129e-01
    3.333333e-01    8.333333e-01   -2.416714e-01   -2.294986e-01   -7.089561e-01   -3.524164e-02   -2.864707e-01
    3.333333e-01    1.000000e+00   -2.025210e-01   -2.348437e-01   -5.954734e-01   -2.836642e-02   -3.011237e-01
    3.333333e-01    1.166667e+00   -1.667042e-01   -2.389541e-01   -4.915343e-01   -2.073972e-02   -3.116997e-01
    3.333333e-01    1.333333e+00   -1.331777e-01   -2.417570e-01   -3.941593e-01   -1.285389e-02   -3.187338e-01
    3.333333e-01    1.500000e+00   -1.011376e-01   -2.432387e-01   -3.010044e-01   -5.000610e-03   -3.225657e-01
    3.333333e-01    1.666667e+00   -6.993124e-02   -2.434238e-01   -2.101380e-01    2.621103e-03   -3.234533e-01
    3.333333e-01    1.833333e+00   -3.900789e-02   -2.423650e-01   -1.199142e-01    9.857688e-03   -3.216232e-01
    3.333333e-01    2.000000e+00   -7.888967e-03   -2.401379e-01   -2.889371e-02    1.658260e-02   -3.172950e-01
    3.333333e-01    2.166667e+00    2.385132e-02   -2.368375e-01    6.420666e-02    2.269061e-02   -3.106922e-01
    3.333333e-01    2.333333e+00    5.660091e-02   -2.325744e-01    1.605521e-01    2.809872e-02   -3.020425e-01
    3.333333e-01    2.500000e+00    9.072434e-02   -2.274713e-01    2.612257e-01    3.274928e-02   -2.915705e-01
    3.333333e-01    2.666667e+00    1.265811e-01   -2.216580e-01    3.672740e-01    3.661096e-02   -2.794779e-01
    3.333333e-01    2.833333e+00    1.645531e-01   -2.152676e-01    4.797774e-01    3.967087e-02   -2.659090e-01
    3.333333e-01    3.000000e+00    2.050907e-01   -2.084344e-01    5.999664e-01    4.190269e-02   -2.508890e-01
    3.333333e-01    3.166667e+00    2.487936e-01   -2.013000e-01    7.294271e-01    4.318184e-02   -2.342059e-01
    3.333333e-01    3.333333e+00    2.965645e-01   -1.940404e-01    8.704402e-01    4.305946e-02   -2.151371e-01
    3.333333e-01    3.500000e+00    3.499230e-01   -1.869469e-01    1.026623e+00    4.004011e-02   -1.916798e-01
    3.333333e-01    3.666667e+00    4.118009e-01   -1.806937e-01    1.203980e+00    3.099404e-02   -1.577442e-01
    3.333333e-01    3.833333e+00    4.886647e-01   -1.766155e-01    1.405107e+00    1.608265e-02   -9.753058e-02
    3.333333e-01    4.000000e+00    5.933328e-01   -1.753328e-01    1.598506e+00    7.696290e-03   -5.806053e-02
    4.166667e-01    0.000000e+00   -7.220660e-01   -2.765015e-01   -1.483343e+00   -6.625573e-03   -6.484579e-02
    4.166667e-01    1.666667e-01   -5.909840e-01   -2.776057e-01   -1.314033e+00   -1.459701e-02   -1.136796e-01
    4.166667e-01    3.333333e-01   -4.938126e-01   -2.813671e-01   -1.130753e+00   -2.947698e-02   -1.913550e-01
    4.166667e-01    5.000000e-01   -4.177881e-01   -2.874314e-01   -9.663776e-01   -3.871548e-02   -2.380289e-01
    4.166667e-01    6.666667e-01   -3.548188e-01   -2.942723e-01   -8.246313e-01   -4.002243e-02   -2.681375e-01
    4.166667e-01    8.333333e-01   -3.004091e-01   -3.007722e-01   -7.005213e-01   -3.618703e-02   -2.893302e-01
    4.166667e-01    1.000000e+00   -2.518897e-01   -3.063346e-01   -5.892630e-01   -2.964423e-02   -3.047132e-01
    4.166667e-01    1.166667e+00   -2.074871e-01   -3.106536e-01   -4.872087e-01   -2.172768e-02   -3.156395e-01
    4.166667e-01    1.333333e+00   -1.659145e-01   -3.135772e-01   -3.915194e-01   -1.317373e-02   -3.227996e-01
    4.166667e-01    1.500000e+00   -1.261746e-01   -3.150449e-01   -2.999086e-01   -4.436195e-03   -3.266084e-01
    4.166667e-01    1.666667e+00   -8.745452e-02   -3.150559e-01   -2.104691e-01    4.173599e-03   -3.273625e-01
    4.166667e-01    1.833333e+00   -4.906656e-02   -3.136537e-01   -1.215619e-01    1.241927e-02   -3.253097e-01
    4.166667e-01    2.000000e+00   -1.041212e-02   -3.109162e-01   -3.174656e-02    2.010798e-02   -3.206839e-01
    4.166667e-01    2.166667e+00    2.904173e-02   -3.069510e-01    6.026458e-02    2.707745e-02   -3.137203e-01
    4.166667e-01    2.333333e+00    6.978011e-02   -3.018904e-01    1.556397e-01    3.319197e-02   -3.046589e-01
    4.166667e-01    2.500000e+00    1.122577e-01   -2.958870e-01    2.554587e-01    3.834164e-02   -2.937370e-01
    4.166667e-01    2.666667e+00    1.569205e-01   -2.891098e-01    3.607521e-01    4.243818e-02   -2.811667e-01
    4.166667e-01    2.833333e+00    2.042391e-01   -2.817409e-01    4.725615e-01    4.539803e-02   -2.670929e-01
    4.166667e-01    3.000000e+00    2.547635e-01   -2.739771e-01    5.920396e-01    4.709523e-02   -2.515148e-01
    4.166667e-01    3.166667e+00    3.092198e-01   -2.660425e-01    7.206121e-01    4.725126e-02   -2.341293e-01
    4.166667e-01    3.333333e+00    3.686887e-01   -2.582267e-01    8.602238e-01    4.517450e-02   -2.139809e-01
    4.166667e-01    3.500000e+00    4.349645e-01   -2.509844e-01    1.013665e+00    3.933318e-02   -1.885296e-01
    4.166667e-01    3.666667e+00    5.113524e-01   -2.451157e-01    1.183902e+00    2.792712e-02   -1.513255e-01
    4.166667e-01    3.833333e+00    6.041666e-01   -2.416753e-01    1.366928e+00    1.325450e-02   -9.008953e-02
    4.166667e-01    4.000000e+00    7.236997e-01   -2.406975e-01    1.535235e+00    5.866973e-03   -5.154698e-02
    5.000000e-01    0.000000e+00   -8.426350e-01   -3.557949e-01   -1.414318e+00   -4.958394e-03   -5.919410e-02
    5.000000e-01    1.666667e-01   -6.984661e-01   -3.566213e-01   -1.265993e+00   -1.152593e-02   -1.066768e-01
    5.000000e-01    3.333333e-01   -5.869028e-01   -3.596368e-01   -1.102124e+00   -2.475266e-02   -1.849559e-01
    5.000000e-01    5.000000e-01   -4.976188e-01   -3.648721e-01   -9.484845e-01   -3.458520e-02   -2.355207e-01
    5.000000e-01    6.666667e-01   -4.230472e-01   -3.711652e-01   -8.122458e-01   -3.760329e-02   -2.687619e-01
    5.000000e-01    8.333333e-01   -3.584249e-01   -3.774066e-01   -6.915262e-01   -3.513170e-02   -2.918329e-01
    5.000000e-01    1.000000e+00   -3.007315e-01   -3.828758e-01   -5.827594e-01   -2.924494e-02   -3.082767e-01
    5.000000e-01    1.166667e+00   -2.479057e-01   -3.871549e-01   -4.827469e-01   -2.141188e-02   -3.197748e-01
    5.000000e-01    1.333333e+00   -1.984309e-01   -3.900131e-01   -3.888437e-01   -1.254991e-02   -3.271995e-01
    5.000000e-01    1.500000e+00   -1.511223e-01   -3.913382e-01   -2.988492e-01   -3.256728e-03   -3.310641e-01
    5.000000e-01    1.666667e+00   -1.050094e-01   -3.910987e-01   -2.108932e-01    6.046174e-03   -3.317184e-01
    5.000000e-01    1.833333e+00   -5.926821e-02   -3.893228e-01   -1.233501e-01    1.503583e-02   -3.294407e-01
    5.000000e-01    2.000000e+00   -1.318006e-02   -3.860867e-01   -3.478074e-02    2.344728e-02   -3.244840e-01
    5.000000e-01    2.166667e+00    3.389542e-02   -3.815070e-01    5.610665e-02    3.105405e-02   -3.170983e-01
    5.000000e-01    2.333333e+00    8.254087e-02   -3.757354e-01    1.504836e-01    3.765974e-02   -3.075368e-01
    5.000000e-01    2.500000e+00    1.333008e-01   -3.689538e-01    2.494266e-01    4.309338e-02   -2.960487e-01
    5.000000e-01    2.666667e+00    1.867064e-01   -3.613709e-01    3.539474e-01    4.720119e-02   -2.828539e-01
    5.000000e-01    2.833333e+00    2.433133e-01   -3.532201e-01    4.650409e-01    4.982383e-02   -2.680911e-01
    5.000000e-01    3.000000e+00    3.037639e-01   -3.447630e-01    5.837603e-01    5.074303e-02   -2.517207e-01
    5.000000e-01    3.166667e+00    3.688956e-01   -3.363057e-01    7.113268e-01    4.956969e-02   -2.333336e-01
    5.000000e-01    3.333333e+00    4.399352e-01   -3.282397e-01    8.492520e-01    4.555124e-02   -2.117442e-01
    5.000000e-01    3.500000e+00    5.188671e-01   -3.211220e-01    9.992416e-01    3.750948e-02   -1.840826e-01
    5.000000e-01    3.666667e+00    6.091179e-01   -3.157366e-01    1.161604e+00    2.490888e-02   -1.443052e-01
    5.000000e-01    3.833333e+00    7.164861e-01   -3.128190e-01    1.329345e+00    1.106509e-02   -8.340223e-02
    5.000000e-01    4.000000e+00    8.492054e-01   -3.120482e-01    1.480442e+00    4.624815e-03   -4.642444e-02
    5.833333e-01    0.000000e+00   -9.577856e-01   -4.404018e-01   -1.352158e+00   -3.774138e-03   -5.489889e-02
    5.833333e-01    1.666667e-01   -8.019829e-01   -4.410308e-01   -1.219102e+00   -9.122857e-03   -1.008529e-01
    5.833333e-01    3.333333e-01   -6.774999e-01   -4.434427e-01   -1.071396e+00   -2.050578e-02   -1.788433e-01
    5.833333e-01    5.000000e-01   -5.758689e-01   -4.478661e-01   -9.285418e-01   -3.004150e-02   -2.323929e-01
    5.833333e-01    6.666667e-01   -4.901931e-01   -4.534566e-01   -7.985764e-01   -3.402484e-02   -2.686836e-01
    5.833333e-01    8.333333e-01   -4.156634e-01   -4.592077e-01   -6.817820e-01   -3.268983e-02   -2.938903e-01
    5.833333e-01    1.000000e+00   -3.490163e-01   -4.643532e-01   -5.758273e-01   -2.756359e-02   -3.116656e-01
    5.833333e-01    1.166667e+00   -2.879449e-01   -4.683955e-01   -4.780582e-01   -2.004667e-02   -3.239447e-01
    5.833333e-01    1.333333e+00   -2.307218e-01   -4.710354e-01   -3.860757e-01   -1.114438e-02   -3.317793e-01
    5.833333e-01    1.500000e+00   -1.759828e-01   -4.721103e-01   -2.977951e-01   -1.561255e-03   -3.357907e-01
    5.833333e-01    1.666667e+00   -1.226034e-01   -4.715558e-01   -2.113996e-01    8.185245e-03   -3.363921e-01
    5.833333e-01    1.833333e+00   -6.962492e-02   -4.693819e-01   -1.252853e-01    1.768939e-02   -3.338991e-01
    5.833333e-01    2.000000e+00   -1.620891e-02   -4.656593e-01   -3.801802e-02    2.661306e-02   -3.285880e-01
    5.833333e-01    2.166667e+00    3.839284e-02   -4.605109e-01    5.169644e-02    3.466208e-02   -3.207254e-01
    5.833333e-01    2.333333e+00    9.486072e-02   -4.541053e-01    1.450327e-01    4.157457e-02   -3.105786e-01
    5.833333e-01    2.500000e+00    1.538288e-01   -4.466527e-01    2.430627e-01    4.711379e-02   -2.984082e-01
    5.833333e-01    2.666667e+00    2.159118e-01   -4.384007e-01    3.467759e-01    5.105789e-02   -2.844395e-01
    5.833333e-01    2.833333e+00    2.817459e-01   -4.296334e-01    4.571099e-01    5.317662e-02   -2.688021e-01
    5.833333e-01    3.000000e+00    3.520569e-01   -4.206752e-01    5.749958e-01    5.318216e-02   -2.514152e-01
    5.833333e-01    3.166667e+00    4.277743e-01   -4.119060e-01    7.014074e-01    5.064383e-02   -2.317726e-01
    5.833333e-01    3.333333e+00    5.102307e-01   -4.037939e-01    8.373416e-01    4.490826e-02   -2.085260e-01
    5.833333e-01    3.500000e+00    6.015048e-01   -3.969366e-01    9.833978e-01    3.530105e-02   -1.787480e-01
    5.833333e-01    3.666667e+00    7.049531e-01   -3.920269e-01    1.137984e+00    2.225032e-02   -1.372032e-01
    5.833333e-01    3.833333e+00    8.257241e-01   -3.895198e-01    1.293203e+00    9.405924e-03   -7.748535e-02
    5.833333e-01    4.000000e+00    9.704400e-01   -3.888916e-01    1.431861e+00    3.769427e-03   -4.229699e-02
    6.666667e-01    0.000000e+00   -1.067995e+00   -5.298972e-01   -1.294963e+00   -2.907384e-03   -5.159838e-02
    6.666667e-01    1.666667e-01   -9.016498e-01   -5.303818e-01   -1.173622e+00   -7.233198e-03   -9.608432e-02
    6.666667e-01    3.333333e-01   -7.654688e-01   -5.323083e-01   -1.039382e+00   -1.682418e-02   -1.733307e-01
    6.666667e-01    5.000000e-01   -6.523758e-01   -5.359898e-01   -9.068117e-01   -2.556272e-02   -2.290623e-01
    6.666667e-01    6.666667e-01   -5.561433e-01   -5.408292e-01   -7.835491e-01   -2.990581e-02   -2.681019e-01
    6.666667e-01    8.333333e-01   -4.720552e-01   -5.459584e-01   -6.711549e-01   -2.938322e-02   -2.955164e-01
    6.666667e-01    1.000000e+00   -3.967028e-01   -5.506236e-01   -5.683508e-01   -2.497582e-02   -3.148044e-01
    6.666667e-01    1.166667e+00   -3.275820e-01   -5.542837e-01   -4.730556e-01   -1.789099e-02   -3.280389e-01
    6.666667e-01    1.333333e+00   -2.627769e-01   -5.565872e-01   -3.831559e-01   -9.131762e-03   -3.364192e-01
    6.666667e-01    1.500000e+00   -2.007549e-01   -5.573276e-01   -2.967102e-01    5.368030e-04   -3.406712e-01
    6.666667e-01    1.666667e+00   -1.402427e-01   -5.564083e-01   -2.119720e-01    1.052362e-02   -3.412741e-01
    6.666667e-01    1.833333e+00   -8.014909e-02   -5.538197e-01   -1.273687e-01    2.035009e-02   -3.385841e-01
    6.666667e-01    2.000000e+00   -1.951640e-02   -5.496249e-01   -4.147615e-02    2.960824e-02   -3.329033e-01
    6.666667e-01    2.166667e+00    4.251149e-02   -5.439503e-01    4.700025e-02    3.793615e-02   -3.245160e-01
    6.666667e-01    2.333333e+00    1.067130e-01   -5.369796e-01    1.392372e-01    4.500485e-02   -3.137037e-01
    6.666667e-01    2.500000e+00    1.738113e-01   -5.289487e-01    2.363008e-01    5.051069e-02   -3.007383e-01
    6.666667e-01    2.666667e+00    2.445024e-01   -5.201427e-01    3.391538e-01    5.416616e-02   -2.858509e-01
    6.666667e-01    2.833333e+00    3.194983e-01   -5.108933e-01    4.486664e-01    5.568137e-02   -2.691634e-01
    6.666667e-01    3.000000e+00    3.995966e-01   -5.015822e-01    5.656278e-01    5.472960e-02   -2.505635e-01
    6.666667e-01    3.166667e+00    4.857969e-01   -4.926501e-01    6.907319e-01    5.090564e-02   -2.294801e-01
    6.666667e-01    3.333333e+00    5.794921e-01   -4.846137e-01    8.244341e-01    4.375286e-02   -2.045050e-01
    6.666667e-01    3.500000e+00    6.827668e-01   -4.780658e-01    9.663669e-01    3.309907e-02   -1.728763e-01
    6.666667e-01    3.666667e+00    7.987818e-01   -4.735806e-01    1.113745e+00    2.002474e-02   -1.302825e-01
    6.666667e-01    3.833333e+00    9.320199e-01   -4.713909e-01    1.258792e+00    8.152774e-03   -7.224444e-02
    6.666667e-01    4.000000e+00    1.087849e+00   -4.708630e-01    1.388068e+00    3.167292e-03   -3.887515e-02
    7.500000e-01    0.000000e+00   -1.173613e+00   -6.239461e-01   -1.241447e+00   -2.254301e-03   -4.904134e-02
    7.500000e-01    1.666667e-01   -9.975865e-01   -6.243218e-01   -1.129521e+00   -5.731463e-03   -9.221741e-02
    7.500000e-01    3.333333e-01   -8.507302e-01   -6.258566e-01   -1.006632e+00   -1.368319e-02   -1.685381e-01
    7.500000e-01    5.000000e-01   -7.270042e-01   -6.288829e-01   -8.836222e-01   -2.138256e-02   -2.258218e-01
    7.500000e-01    6.666667e-01   -6.207846e-01   -6.329841e-01   -7.672097e-01   -2.565149e-02   -2.672284e-01
    7.500000e-01    8.333333e-01   -5.275226e-01   -6.374334e-01   -6.595776e-01   -2.562133e-02   -2.967844e-01
    7.500000e-01    1.000000e+00   -4.437414e-01   -6.415246e-01   -5.602442e-01   -2.181414e-02   -3.176737e-01
    7.500000e-01    1.166667e+00   -3.667875e-01   -6.447048e-01   -4.676641e-01   -1.519243e-02   -3.319903e-01
    7.500000e-01    1.333333e+00   -2.945811e-01   -6.465887e-01   -3.800276e-01   -6.689103e-03   -3.410323e-01
    7.500000e-01    1.500000e+00   -2.254345e-01   -6.469345e-01   -2.955567e-01    2.915974e-03   -3.456134e-01
    7.500000e-01    1.666667e+00   -1.579321e-01   -6.456167e-01   -2.125906e-01    1.298419e-02   -3.462744e-01
    7.500000e-01    1.833333e+00   -9.085303e-02   -6.426064e-01   -1.295977e-01    2.297802e-02   -3.434117e-01
    7.500000e-01    2.000000e+00   -2.312160e-02   -6.379574e-01   -4.516912e-02    3.242653e-02   -3.373529e-01
    7.500000e-01    2.166667e+00    4.622621e-02   -6.317976e-01    4.198757e-02    4.090288e-02   -3.284002e-01
    7.500000e-01    2.333333e+00    1.180669e-01   -6.243231e-01    1.330501e-01    4.801220e-02   -3.168490e-01
    7.500000e-01    2.500000e+00    1.932123e-01   -6.157935e-01    2.290772e-01    5.338569e-02   -3.029830e-01
    7.500000e-01    2.666667e+00    2.724374e-01   -6.065279e-01    3.310017e-01    5.667566e-02   -2.870417e-01
    7.500000e-01    2.833333e+00    3.565237e-01   -5.969016e-01    4.396183e-01    5.754678e-02   -2.691474e-01
    7.500000e-01    3.000000e+00    4.463282e-01   -5.873456e-01    5.555610e-01    5.566348e-02   -2.491749e-01
    7.500000e-01    3.166667e+00    5.428963e-01   -5.783471e-01    6.792299e-01    5.069522e-02   -2.265369e-01
    7.500000e-01    3.333333e+00    6.476363e-01   -5.704472e-01    8.105652e-01    4.242070e-02   -1.998690e-01
    7.500000e-01    3.500000e+00    7.625660e-01   -5.642069e-01    9.484334e-01    3.109876e-02   -1.667166e-01
    7.500000e-01    3.666667e+00    8.905772e-01   -5.600809e-01    1.089379e+00    1.821618e-02   -1.236489e-01
    7.500000e-01    3.833333e+00    1.035523e+00   -5.581348e-01    1.226165e+00    7.205912e-03   -6.756020e-02
    7.500000e-01    4.000000e+00    1.201785e+00   -5.576790e-01    1.348133e+00    2.735183e-03   -3.595862e-02
    8.333333e-01    0.000000e+00   -1.274903e+00   -7.222705e-01   -1.190703e+00   -1.750008e-03   -4.705269e-02
    8.333333e-01    1.666667e-01   -1.089903e+00   -7.225622e-01   -1.086656e+00   -4.524932e-03   -8.910707e-02
    8.333333e-01    3.333333e-01   -9.332407e-01   -7.237788e-01   -9.734959e-01   -1.102305e-02   -1.644800e-01
    8.333333e-01    5.000000e-01   -7.996462e-01   -7.262365e-01   -8.592825e-01   -1.760178e-02   -2.228524e-01
    8.333333e-01    6.666667e-01   -6.840116e-01   -7.296461e-01   -7.496727e-01   -2.151489e-02   -2.662433e-01
    8.333333e-01    8.333333e-01   -5.819848e-01   -7.334082e-01   -6.470422e-01   -2.170874e-02   -2.977899e-01
    8.333333e-01    1.000000e+00   -4.900768e-01   -7.368823e-01   -5.514552e-01   -1.835739e-02   -3.202897e-01
    8.333333e-01    1.166667e+00   -4.055261e-01   -7.395273e-01   -4.618256e-01   -1.217655e-02   -3.357655e-01
    8.333333e-01    1.333333e+00   -3.261148e-01   -7.409412e-01   -3.766409e-01   -3.987869e-03   -3.455592e-01
    8.333333e-01    1.500000e+00   -2.500143e-01   -7.408566e-01   -2.942982e-01    5.452071e-03   -3.505475e-01
    8.333333e-01    1.666667e+00   -1.756745e-01   -7.391238e-01   -2.132341e-01    1.548314e-02   -3.513221e-01
    8.333333e-01    1.833333e+00   -1.017487e-01   -7.356955e-01   -1.319665e-01    2.552490e-02   -3.483147e-01
    8.333333e-01    2.000000e+00   -2.704458e-02   -7.306155e-01   -4.910727e-02    3.505267e-02   -3.418761e-01