TITLE="test case governed by poisson equation"
VARIABLES="x" "y" "z" "u" "v" "w" 
ZONE T="flow-field", N=      182,E=      72,ET=BRICK, F=FEPOINT
    0.000000e+00    2.500000e+00    0.000000e+00    2.277062e-05    1.828387e-05    2.120192e-06
    0.000000e+00    0.000000e+00    0.000000e+00    2.571711e-05    1.828282e-05   -3.294400e-06
    1.250000e+00    2.500000e+00    0.000000e+00    2.279551e-05    1.965080e-05    5.589492e-06
    1.250000e+00    1.250000e+00    0.000000e+00    2.423074e-05    1.972522e-05    3.281370e-06
    3.750000e+00    1.250000e+00    0.000000e+00    2.336671e-05    2.473752e-05    1.920072e-05
    3.750000e+00    2.500000e+00    0.000000e+00    2.280840e-05    2.378024e-05    1.539274e-05
    5.000000e+00    2.500000e+00    0.000000e+00    2.342286e-05    2.446246e-05    1.958332e-05
    5.000000e+00    0.000000e+00    0.000000e+00    2.482369e-05    2.485815e-05    1.161265e-05
    0.000000e+00    1.250000e+00    0.000000e+00    2.423003e-05    1.826906e-05   -6.454488e-07
    2.500000e+00    1.250000e+00    0.000000e+00    2.411532e-05    2.236357e-05    7.417346e-06
    5.000000e+00    1.250000e+00    0.000000e+00    2.343540e-05    2.452188e-05    1.334702e-05
    1.250000e+00    0.000000e+00    0.000000e+00    2.591082e-05    1.986004e-05    3.769609e-07
    2.500000e+00    0.000000e+00    0.000000e+00    2.600157e-05    2.203002e-05    4.640908e-06
    3.750000e+00    0.000000e+00    0.000000e+00    2.548401e-05    2.448331e-05    6.095671e-06
    0.000000e+00    2.500000e+00    1.250000e+00    1.926778e-05    1.572511e-05    2.109830e-06
    0.000000e+00    0.000000e+00    1.250000e+00    2.180619e-05    1.571959e-05   -3.263672e-06
    1.250000e+00    2.500000e+00    1.250000e+00    1.931153e-05    1.700388e-05    5.542016e-06
    1.250000e+00    1.250000e+00    1.250000e+00    2.048251e-05    1.699094e-05    3.137007e-06
    3.750000e+00    1.250000e+00    1.250000e+00    2.133256e-05    1.942015e-05    1.257826e-05
    3.750000e+00    2.500000e+00    1.250000e+00    2.151440e-05    2.105818e-05    1.648705e-05
    5.000000e+00    2.500000e+00    1.250000e+00    2.140827e-05    2.026307e-05    1.846061e-05
    5.000000e+00    0.000000e+00    1.250000e+00    2.198947e-05    2.005843e-05    1.077897e-05
    0.000000e+00    1.250000e+00    1.250000e+00    2.052049e-05    1.570297e-05   -5.645526e-07
    2.500000e+00    1.250000e+00    1.250000e+00    2.018503e-05    1.821748e-05    8.004553e-06
    5.000000e+00    1.250000e+00    1.250000e+00    2.222619e-05    2.019887e-05    1.510318e-05
    1.250000e+00    0.000000e+00    1.250000e+00    2.173733e-05    1.692031e-05    4.477146e-07
    2.500000e+00    0.000000e+00    1.250000e+00    2.184911e-05    1.822398e-05    4.120181e-06
    3.750000e+00    0.000000e+00    1.250000e+00    2.186529e-05    1.850717e-05    7.985378e-06
    0.000000e+00    2.500000e+00    2.500000e+00    1.601566e-05    1.323792e-05    2.103268e-06
    0.000000e+00    0.000000e+00    2.500000e+00    1.798755e-05    1.328197e-05   -3.047998e-06
    1.250000e+00    2.500000e+00    2.500000e+00    1.607421e-05    1.429590e-05    5.252400e-06
    1.250000e+00    1.250000e+00    2.500000e+00    1.705811e-05    1.418790e-05    3.001705e-06
    3.750000e+00    1.250000e+00    2.500000e+00    1.795780e-05    1.579901e-05    1.052465e-05
    3.750000e+00    2.500000e+00    2.500000e+00    1.814915e-05    1.638303e-05    1.430098e-05
    5.000000e+00    2.500000e+00    2.500000e+00    1.865905e-05    1.637362e-05    1.755964e-05
    5.000000e+00    0.000000e+00    2.500000e+00    1.860075e-05    1.569776e-05    1.038076e-05
    0.000000e+00    1.250000e+00    2.500000e+00    1.704773e-05    1.324417e-05   -4.964346e-07
    2.500000e+00    1.250000e+00    2.500000e+00    1.737841e-05    1.498969e-05    6.951043e-06
    5.000000e+00    1.250000e+00    2.500000e+00    1.839712e-05    1.597655e-05    1.401428e-05
    1.250000e+00    0.000000e+00    2.500000e+00    1.795336e-05    1.414405e-05    4.175118e-07
    2.500000e+00    0.000000e+00    2.500000e+00    1.805207e-05    1.483072e-05    3.868504e-06
    3.750000e+00    0.000000e+00    2.500000e+00    1.832031e-05    1.549657e-05    7.216647e-06
    0.000000e+00    2.500000e+00    3.750000e+00    1.304763e-05    1.088569e-05    1.997372e-06
    0.000000e+00    0.000000e+00    3.750000e+00    1.457718e-05    1.094693e-05   -2.809849e-06
    1.250000e+00    2.500000e+00    3.750000e+00    1.311814e-05    1.175690e-05    4.889096e-06
    1.250000e+00    1.250000e+00    3.750000e+00    1.393212e-05    1.162695e-05    2.701681e-06
    3.750000e+00    1.250000e+00    3.750000e+00    1.463666e-05    1.258808e-05    9.426644e-06
    3.750000e+00    2.500000e+00    3.750000e+00    1.459958e-05    1.301992e-05    1.249873e-05
    5.000000e+00    2.500000e+00    3.750000e+00    1.511398e-05    1.305397e-05    1.578160e-05
    5.000000e+00    0.000000e+00    3.750000e+00    1.502973e-05    1.233353e-05    9.607108e-06
    0.000000e+00    1.250000e+00    3.750000e+00    1.386856e-05    1.089152e-05   -4.158504e-07
    2.500000e+00    1.250000e+00    3.750000e+00    1.419766e-05    1.219557e-05    6.093984e-06
    5.000000e+00    1.250000e+00    3.750000e+00    1.505960e-05    1.262316e-05    1.266767e-05
    1.250000e+00    0.000000e+00    3.750000e+00    1.455745e-05    1.156641e-05    3.235109e-07
    2.500000e+00    0.000000e+00    3.750000e+00    1.465087e-05    1.205424e-05    3.406566e-06
    3.750000e+00    0.000000e+00    3.750000e+00    1.480129e-05    1.232118e-05    6.442071e-06
    0.000000e+00    2.500000e+00    5.000000e+00    1.033839e-05    8.716434e-06    1.829318e-06
    0.000000e+00    0.000000e+00    5.000000e+00    1.150994e-05    8.762333e-06   -2.573340e-06
    1.250000e+00    2.500000e+00    5.000000e+00    1.043087e-05    9.395175e-06    4.460212e-06
    1.250000e+00    1.250000e+00    5.000000e+00    1.104292e-05    9.265723e-06    2.407731e-06
    3.750000e+00    1.250000e+00    5.000000e+00    1.159801e-05    9.817569e-06    8.348218e-06
    3.750000e+00    2.500000e+00    5.000000e+00    1.149484e-05    1.019143e-05    1.099205e-05
    5.000000e+00    2.500000e+00    5.000000e+00    1.199848e-05    1.030247e-05    1.388195e-05
    5.000000e+00    0.000000e+00    5.000000e+00    1.189296e-05    9.458756e-06    8.642708e-06
    0.000000e+00    1.250000e+00    5.000000e+00    1.098649e-05    8.710774e-06   -3.840815e-07
    2.500000e+00    1.250000e+00    5.000000e+00    1.126485e-05    9.637816e-06    5.388953e-06
    5.000000e+00    1.250000e+00    5.000000e+00    1.198721e-05    9.817202e-06    1.126490e-05
    1.250000e+00    0.000000e+00    5.000000e+00    1.147479e-05    9.206109e-06    2.208423e-07
    2.500000e+00    0.000000e+00    5.000000e+00    1.151297e-05    9.487047e-06    2.977187e-06
    3.750000e+00    0.000000e+00    5.000000e+00    1.164733e-05    9.560260e-06    5.771092e-06
    0.000000e+00    2.500000e+00    6.250000e+00    7.881955e-06    6.729689e-06    1.623444e-06
    0.000000e+00    0.000000e+00    6.250000e+00    8.770254e-06    6.771663e-06   -2.317463e-06
    1.250000e+00    2.500000e+00    6.250000e+00    7.987768e-06    7.259588e-06    3.983219e-06
    1.250000e+00    1.250000e+00    6.250000e+00    8.436725e-06    7.124900e-06    2.114511e-06
    3.750000e+00    1.250000e+00    6.250000e+00    8.909396e-06    7.447740e-06    7.289385e-06
    3.750000e+00    2.500000e+00    6.250000e+00    8.817057e-06    7.809534e-06    9.545641e-06
    5.000000e+00    2.500000e+00    6.250000e+00    9.308181e-06    7.906433e-06    1.204552e-05
    5.000000e+00    0.000000e+00    6.250000e+00    9.148071e-06    7.037998e-06    7.602945e-06
    0.000000e+00    1.250000e+00    6.250000e+00    8.386468e-06    6.717716e-06   -3.573959e-07
    2.500000e+00    1.250000e+00    6.250000e+00    8.622483e-06    7.364291e-06    4.705998e-06
    5.000000e+00    1.250000e+00    6.250000e+00    9.286354e-06    7.416219e-06    9.826846e-06
    1.250000e+00    0.000000e+00    6.250000e+00    8.721974e-06    7.065744e-06    1.518226e-07
    2.500000e+00    0.000000e+00    6.250000e+00    8.750215e-06    7.208475e-06    2.594960e-06
    3.750000e+00    0.000000e+00    6.250000e+00    8.890449e-06    7.186000e-06    5.079627e-06
    0.000000e+00    2.500000e+00    7.500000e+00    5.693974e-06    4.954591e-06    1.400005e-06
    0.000000e+00    0.000000e+00    7.500000e+00    6.382044e-06    4.996898e-06   -2.028120e-06
    1.250000e+00    2.500000e+00    7.500000e+00    5.809583e-06    5.380148e-06    3.462247e-06
    1.250000e+00    1.250000e+00    7.500000e+00    6.142964e-06    5.241441e-06    1.814966e-06
    3.750000e+00    1.250000e+00    7.500000e+00    6.582176e-06    5.433825e-06    6.229425e-06
    3.750000e+00    2.500000e+00    7.500000e+00    6.519771e-06    5.792946e-06    8.125783e-06
    5.000000e+00    2.500000e+00    7.500000e+00    7.002461e-06    5.860810e-06    1.025732e-05
    5.000000e+00    0.000000e+00    7.500000e+00    6.786120e-06    4.991003e-06    6.526253e-06
    0.000000e+00    1.250000e+00    7.500000e+00    6.098165e-06    4.938889e-06   -3.218003e-07
    2.500000e+00    1.250000e+00    7.500000e+00    6.311111e-06    5.400925e-06    4.025512e-06
    5.000000e+00    1.250000e+00    7.500000e+00    6.954625e-06    5.374157e-06    8.394013e-06
    1.250000e+00    0.000000e+00    7.500000e+00    6.330012e-06    5.184667e-06    1.062517e-07
    2.500000e+00    0.000000e+00    7.500000e+00    6.366558e-06    5.242280e-06    2.222283e-06
    3.750000e+00    0.000000e+00    7.500000e+00    6.519114e-06    5.168384e-06    4.366037e-06
    0.000000e+00    2.500000e+00    8.750000e+00    3.808247e-06    3.421593e-06    1.169902e-06
    0.000000e+00    0.000000e+00    8.750000e+00    4.361889e-06    3.466229e-06   -1.710475e-06
    1.250000e+00    2.500000e+00    8.750000e+00    3.930251e-06    3.777927e-06    2.905299e-06
    1.250000e+00    1.250000e+00    8.750000e+00    4.186971e-06    3.636316e-06    1.509531e-06
    3.750000e+00    1.250000e+00    8.750000e+00    4.614354e-06    3.751984e-06    5.168389e-06
    3.750000e+00    2.500000e+00    8.750000e+00    4.577723e-06    4.110777e-06    6.721476e-06
    5.000000e+00    2.500000e+00    8.750000e+00    5.054709e-06    4.154636e-06    8.498991e-06
    5.000000e+00    0.000000e+00    8.750000e+00    4.797120e-06    3.288056e-06    5.433766e-06
    0.000000e+00    1.250000e+00    8.750000e+00    4.145337e-06    3.404347e-06   -2.759315e-07
    2.500000e+00    1.250000e+00    8.750000e+00    4.347545e-06    3.747302e-06    3.341858e-06
    5.000000e+00    1.250000e+00    8.750000e+00    4.985643e-06    3.671949e-06    6.967648e-06
    1.250000e+00    0.000000e+00    8.750000e+00    4.310083e-06    3.582191e-06    7.318041e-08
    2.500000e+00    0.000000e+00    8.750000e+00    4.359339e-06    3.587420e-06    1.844282e-06
    3.750000e+00    0.000000e+00    8.750000e+00    4.523979e-06    3.484522e-06    3.635683e-06
    0.000000e+00    2.500000e+00    1.000000e+01    2.258197e-06    2.156412e-06    9.400241e-07
    0.000000e+00    0.000000e+00    1.000000e+01    2.713383e-06    2.204104e-06   -1.371865e-06
    1.250000e+00    2.500000e+00    1.000000e+01    2.384056e-06    2.462949e-06    2.320870e-06
    1.250000e+00    1.250000e+00    1.000000e+01    2.585324e-06    2.318850e-06    1.198709e-06
    3.750000e+00    1.250000e+00    1.000000e+01    3.004637e-06    2.388519e-06    4.106159e-06
    3.750000e+00    2.500000e+00    1.000000e+01    2.980302e-06    2.748012e-06    5.326371e-06
    5.000000e+00    2.500000e+00    1.000000e+01    3.452856e-06    2.780370e-06    6.759649e-06
    5.000000e+00    0.000000e+00    1.000000e+01    3.179365e-06    1.918276e-06    4.335121e-06
    0.000000e+00    1.250000e+00    1.000000e+01    2.546299e-06    2.138990e-06   -2.206210e-07
    2.500000e+00    1.250000e+00    1.000000e+01    2.740380e-06    2.397191e-06    2.653640e-06
    5.000000e+00    1.250000e+00    1.000000e+01    3.374846e-06    2.301257e-06    5.547355e-06
    1.250000e+00    0.000000e+00    1.000000e+01    2.663302e-06    2.266535e-06    4.647429e-08
    2.500000e+00    0.000000e+00    1.000000e+01    2.725527e-06    2.236500e-06    1.457698e-06
    3.750000e+00    0.000000e+00    1.000000e+01    2.901974e-06    2.119831e-06    2.894219e-06
    0.000000e+00    2.500000e+00    1.125000e+01    1.075665e-06    1.180200e-06    7.159928e-07
    0.000000e+00    0.000000e+00    1.125000e+01    1.440101e-06    1.228803e-06   -1.016394e-06
    1.250000e+00    2.500000e+00    1.125000e+01    1.205319e-06    1.439289e-06    1.714361e-06
    1.250000e+00    1.250000e+00    1.125000e+01    1.351557e-06    1.293509e-06    8.821885e-07
    3.750000e+00    1.250000e+00    1.125000e+01    1.748883e-06    1.335801e-06    3.041246e-06
    3.750000e+00    2.500000e+00    1.125000e+01    1.712402e-06    1.696761e-06    3.930890e-06
    5.000000e+00    2.500000e+00    1.125000e+01    2.187319e-06    1.736836e-06    5.037073e-06
    5.000000e+00    0.000000e+00    1.125000e+01    1.930729e-06    8.768261e-07    3.235552e-06
    0.000000e+00    1.250000e+00    1.125000e+01    1.317482e-06    1.161982e-06   -1.544460e-07
    2.500000e+00    1.250000e+00    1.125000e+01    1.494884e-06    1.346835e-06    1.957831e-06
    5.000000e+00    1.250000e+00    1.125000e+01    2.116101e-06    1.259988e-06    4.135818e-06
    1.250000e+00    0.000000e+00    1.125000e+01    1.390677e-06    1.242014e-06    2.329460e-08
    2.500000e+00    0.000000e+00    1.125000e+01    1.463446e-06    1.181433e-06    1.065020e-06
    3.750000e+00    0.000000e+00    1.125000e+01    1.648542e-06    1.064870e-06    2.144351e-06
    0.000000e+00    2.500000e+00    1.250000e+01    2.989415e-07    5.090979e-07    5.029736e-07
    0.000000e+00    0.000000e+00    1.250000e+01    5.568818e-07    5.436234e-07   -6.505327e-07
    1.250000e+00    2.500000e+00    1.250000e+01    4.254757e-07    7.058227e-07    1.094476e-06
    1.250000e+00    1.250000e+00    1.250000e+01    5.024019e-07    5.660216e-07    5.631857e-07
    3.750000e+00    1.250000e+00    1.250000e+01    8.379711e-07    5.878922e-07    1.966501e-06
    3.750000e+00    2.500000e+00    1.250000e+01    7.675032e-07    9.543015e-07    2.537127e-06
    5.000000e+00    2.500000e+00    1.250000e+01    1.207844e-06    1.031944e-06    3.344621e-06
    5.000000e+00    0.000000e+00    1.250000e+01    1.027514e-06    1.503885e-07    2.138708e-06
    0.000000e+00    1.250000e+00    1.250000e+01    4.784921e-07    4.851420e-07   -7.939195e-08
    2.500000e+00    1.250000e+00    1.250000e+01    6.086022e-07    5.967908e-07    1.254643e-06
    5.000000e+00    1.250000e+00    1.250000e+01    1.194488e-06    5.467386e-07    2.733299e-06
    1.250000e+00    0.000000e+00    1.250000e+01    5.027532e-07    5.134791e-07    5.967676e-09
    2.500000e+00    0.000000e+00    1.250000e+01    5.694243e-07    4.340459e-07    6.794887e-07
    3.750000e+00    0.000000e+00    1.250000e+01    7.570246e-07    3.126307e-07    1.392846e-06
    0.000000e+00    2.500000e+00    1.375000e+01   -7.411430e-08    1.485821e-07    2.723591e-07
    0.000000e+00    0.000000e+00    1.375000e+01    9.417195e-08    1.465013e-07   -2.873283e-07
    1.250000e+00    2.500000e+00    1.375000e+01    8.956189e-08    2.654984e-07    4.876493e-07
    1.250000e+00    1.250000e+00    1.375000e+01    5.784868e-08    1.421042e-07    2.486162e-07
    3.750000e+00    1.250000e+00    1.375000e+01    2.212709e-07    1.674824e-07    8.547308e-07
    3.750000e+00    2.500000e+00    1.375000e+01    5.630885e-09    4.896568e-07    1.171498e-06
    5.000000e+00    2.500000e+00    1.375000e+01    5.883129e-07    6.606288e-07    1.658025e-06
    5.000000e+00    0.000000e+00    1.375000e+01    4.792974e-07   -2.817586e-07    1.073647e-06
    0.000000e+00    1.250000e+00    1.375000e+01    4.399561e-08    9.323922e-08   -1.634032e-08
    2.500000e+00    1.250000e+00    1.375000e+01    9.590953e-08    2.142941e-07    5.773728e-07
    5.000000e+00    1.250000e+00    1.375000e+01    6.095354e-07    1.295238e-07    1.284457e-06
    1.250000e+00    0.000000e+00    1.375000e+01    2.659030e-08    8.969183e-08    3.819973e-09
    2.500000e+00    0.000000e+00    1.375000e+01    5.467447e-08   -1.292380e-08    3.095825e-07
    3.750000e+00    0.000000e+00    1.375000e+01    1.883211e-07   -1.274635e-07    6.519542e-07
    0.000000e+00    2.500000e+00    1.500000e+01    0.000000e+00    0.000000e+00    0.000000e+00
    0.000000e+00    0.000000e+00    1.500000e+01    0.000000e+00    0.000000e+00    0.000000e+00
    1.250000e+00    2.500000e+00    1.500000e+01    0.000000e+00    0.000000e+00    0.000000e+00
    1.250000e+00    1.250000e+00    1.500000e+01    0.000000e+00    0.000000e+00    0.000000e+00
    3.750000e+00    1.250000e+00    1.500000e+01    0.000000e+00    0.000000e+00    0.000000e+00
    3.750000e+00    2.500000e+00    1.500000e+01    0.000000e+00    0.000000e+00    0.000000e+00
    5.000000e+00    2.500000e+00    1.500000e+01    0.000000e+00    0.000000e+00    0.000000e+00
    5.000000e+00    0.000000e+00    1.500000e+01    0.000000e+00    0.000000e+00    0.000000e+00
    0.000000e+00    1.250000e+00    1.500000e+01    0.000000e+00    0.000000e+00    0.000000e+00
    2.500000e+00    1.250000e+00    1.500000e+01    0.000000e+00    0.000000e+00    0.000000e+00
    5.000000e+00    1.250000e+00    1.500000e+01    0.000000e+00    0.000000e+00    0.000000e+00
    1.250000e+00    0.000000e+00    1.500000e+01    0.000000e+00    0.000000e+00    0.000000e+00
    2.500000e+00    0.000000e+00    1.500000e+01    0.000000e+00    0.000000e+00    0.000000e+00
    3.750000e+00    0.000000e+00    1.500000e+01    0.000000e+00    0.000000e+00    0.000000e+00
      12       4       9       2      26      18      23      16
       9       4       3       1      23      18      17      15
      13      10       4      12      27      24      18      26
      14       5      10      13      28      19      24      27
       6       5      11       7      20      19      25      21
      11       5      14       8      25      19      28      22
      26      18      23      16      40      32      37      30
      23      18      17      15      37      32      31      29
      27      24      18      26      41      38      32      40
      28      19      24      27      42      33      38      41
      20      19      25      21      34      33      39      35
      25      19      28      22      39      33      42      36
      40      32      37      30      54      46      51      44
      37      32      31      29      51      46      45      43
      41      38      32      40      55      52      46      54
      42      33      38      41      56      47      52      55
      34      33      39      35      48      47      53      49
      39      33      42      36      53      47      56      50
      54      46      51      44      68      60      65      58
      51      46      45      43      65      60      59      57
      55      52      46      54      69      66      60      68
      56      47      52      55      70      61      66      69
      48      47      53      49      62      61      67      63
      53      47      56      50      67      61      70      64
      68      60      65      58      82      74      79      72
      65      60      59      57      79      74      73      71
      69      66      60      68      83      80      74      82
      70      61      66      69      84      75      80      83
      62      61      67      63      76      75      81      77
      67      61      70      64      81      75      84      78
      82      74      79      72      96      88      93      86
      79      74      73      71      93      88      87      85
      83      80      74      82      97      94      88      96
      84      75      80      83      98      89      94      97
      76      75      81      77      90      89      95      91
      81      75      84      78      95      89      98      92
      96      88      93      86     110     102     107     100
      93      88      87      85     107     102     101      99
      97      94      88      96     111     108     102     110
      98      89      94      97     112     103     108     111
      90      89      95      91     104     103     109     105
      95      89      98      92     109     103     112     106
     110     102     107     100     124     116     121     114
     107     102     101      99     121     116     115     113
     111     108     102     110     125     122     116     124
     112     103     108     111     126     117     122     125
     104     103     109     105     118     117     123     119
     109     103     112     106     123     117     126     120
     124     116     121     114     138     130     135     128
     121     116     115     113     135     130     129     127
     125     122     116     124     139     136     130     138
     126     117     122     125     140     131     136     139
     118     117     123     119     132     131     137     133
     123     117     126     120     137     131     140     134
     138     130     135     128     152     144     149     142
     135     130     129     127     149     144     143     141
     139     136     130     138     153     150     144     152
     140     131     136     139     154     145     150     153
     132     131     137     133     146     145     151     147
     137     131     140     134     151     145     154     148
     152     144     149     142     166     158     163     156
     149     144     143     141     163     158     157     155
     153     150     144     152     167     164     158     166
     154     145     150     153     168     159     164     167
     146     145     151     147     160     159     165     161
     151     145     154     148     165     159     168     162
     166     158     163     156     180     172     177     170
     163     158     157     155     177     172     171     169
     167     164     158     166     181     178     172     180
     168     159     164     167     182     173     178     181
     160     159     165     161     174     173     179     175
     165     159     168     162     179     173     182     176
