TITLE="erjiesimianti"
VARIABLES="X""Y""Z""U""V""W""M"
ZONE T="flow-field",N=    2920,E=    2653,ET=TETRAHEDRON,F=FEPOINT
    0.000000e+00    0.000000e+00    0.000000e+00    0.000000e+00    0.000000e+00    0.000000e+00    0.000000e+00
    0.000000e+00    1.250000e-01    0.000000e+00    0.000000e+00    0.000000e+00    0.000000e+00    0.000000e+00
    0.000000e+00    2.500000e-01    0.000000e+00    0.000000e+00    0.000000e+00    0.000000e+00    0.000000e+00
    0.000000e+00    3.750000e-01    0.000000e+00    0.000000e+00    0.000000e+00    0.000000e+00    0.000000e+00
    0.000000e+00    5.000000e-01    0.000000e+00    0.000000e+00    0.000000e+00    0.000000e+00    0.000000e+00
    0.000000e+00    6.250000e-01    0.000000e+00    0.000000e+00    0.000000e+00    0.000000e+00    0.000000e+00
    0.000000e+00    7.500000e-01    0.000000e+00    0.000000e+00    0.000000e+00    0.000000e+00    0.000000e+00
    0.000000e+00    8.750000e-01    0.000000e+00    0.000000e+00    0.000000e+00    0.000000e+00    0.000000e+00
    0.000000e+00    1.000000e+00    0.000000e+00    0.000000e+00    0.000000e+00    0.000000e+00    0.000000e+00
    0.000000e+00    1.000000e+00    1.250000e-01    0.000000e+00    0.000000e+00    0.000000e+00    0.000000e+00
    0.000000e+00    1.000000e+00    2.500000e-01    0.000000e+00    0.000000e+00    0.000000e+00    0.000000e+00
    0.000000e+00    1.000000e+00    3.750000e-01    0.000000e+00    0.000000e+00    0.000000e+00    0.000000e+00
    0.000000e+00    1.000000e+00    5.000000e-01    0.000000e+00    0.000000e+00    0.000000e+00    0.000000e+00
    0.000000e+00    1.000000e+00    6.250000e-01    0.000000e+00    0.000000e+00    0.000000e+00    0.000000e+00
    0.000000e+00    1.000000e+00    7.500000e-01    0.000000e+00    0.000000e+00    0.000000e+00    0.000000e+00
    0.000000e+00    1.000000e+00    8.750000e-01    0.000000e+00    0.000000e+00    0.000000e+00    0.000000e+00
    0.000000e+00    1.000000e+00    1.000000e+00    0.000000e+00    0.000000e+00    0.000000e+00    0.000000e+00
    0.000000e+00    8.750000e-01    1.000000e+00    0.000000e+00    0.000000e+00    0.000000e+00    0.000000e+00
    0.000000e+00    7.500000e-01    1.000000e+00    0.000000e+00    0.000000e+00    0.000000e+00    0.000000e+00
    0.000000e+00    6.250000e-01    1.000000e+00    0.000000e+00    0.000000e+00    0.000000e+00    0.000000e+00
    0.000000e+00    5.000000e-01    1.000000e+00    0.000000e+00    0.000000e+00    0.000000e+00    0.000000e+00
    0.000000e+00    3.750000e-01    1.000000e+00    0.000000e+00    0.000000e+00    0.000000e+00    0.000000e+00
    0.000000e+00    2.500000e-01    1.000000e+00    0.000000e+00    0.000000e+00    0.000000e+00    0.000000e+00
    0.000000e+00    1.250000e-01    1.000000e+00    0.000000e+00    0.000000e+00    0.000000e+00    0.000000e+00
    0.000000e+00    0.000000e+00    1.000000e+00    0.000000e+00    0.000000e+00    0.000000e+00    0.000000e+00
    0.000000e+00    0.000000e+00    8.750000e-01    0.000000e+00    0.000000e+00    0.000000e+00    0.000000e+00
    0.000000e+00    0.000000e+00    7.500000e-01    0.000000e+00    0.000000e+00    0.000000e+00    0.000000e+00
    0.000000e+00    0.000000e+00    6.250000e-01    0.000000e+00    0.000000e+00    0.000000e+00    0.000000e+00
    0.000000e+00    0.000000e+00    5.000000e-01    0.000000e+00    0.000000e+00    0.000000e+00    0.000000e+00
    0.000000e+00    0.000000e+00    3.750000e-01    0.000000e+00    0.000000e+00    0.000000e+00    0.000000e+00
    0.000000e+00    0.000000e+00    2.500000e-01    0.000000e+00    0.000000e+00    0.000000e+00    0.000000e+00
    0.000000e+00    0.000000e+00    1.250000e-01    0.000000e+00    0.000000e+00    0.000000e+00    0.000000e+00
    0.000000e+00    8.233920e-01    1.737655e-01    0.000000e+00    0.000000e+00    0.000000e+00    0.000000e+00
    0.000000e+00    7.866960e-01    8.688274e-02    0.000000e+00    0.000000e+00    0.000000e+00    0.000000e+00
    0.000000e+00    9.116960e-01    2.118827e-01    0.000000e+00    0.000000e+00    0.000000e+00    0.000000e+00
    0.000000e+00    9.116960e-01    8.688274e-02    0.000000e+00    0.000000e+00    0.000000e+00    0.000000e+00
    0.000000e+00    8.335221e-01    8.309339e-01    0.000000e+00    0.000000e+00    0.000000e+00    0.000000e+00
    0.000000e+00    9.167610e-01    7.904670e-01    0.000000e+00    0.000000e+00    0.000000e+00    0.000000e+00
    0.000000e+00    7.917610e-01    9.154670e-01    0.000000e+00    0.000000e+00    0.000000e+00    0.000000e+00
    0.000000e+00    9.167610e-01    9.154670e-01    0.000000e+00    0.000000e+00    0.000000e+00    0.000000e+00
    0.000000e+00    1.783998e-01    8.202863e-01    0.000000e+00    0.000000e+00    0.000000e+00    0.000000e+00
    0.000000e+00    2.141999e-01    9.101431e-01    0.000000e+00    0.000000e+00    0.000000e+00    0.000000e+00
    0.000000e+00    8.919988e-02    7.851431e-01    0.000000e+00    0.000000e+00    0.000000e+00    0.000000e+00
    0.000000e+00    8.919988e-02    9.101431e-01    0.000000e+00    0.000000e+00    0.000000e+00    0.000000e+00
    0.000000e+00    1.643890e-01    1.637467e-01    0.000000e+00    0.000000e+00    0.000000e+00    0.000000e+00
    0.000000e+00    8.219450e-02    2.068733e-01    0.000000e+00    0.000000e+00    0.000000e+00    0.000000e+00
    0.000000e+00    2.071945e-01    8.187333e-02    0.000000e+00    0.000000e+00    0.000000e+00    0.000000e+00
    0.000000e+00    8.219450e-02    8.187333e-02    0.000000e+00    0.000000e+00    0.000000e+00    0.000000e+00
    0.000000e+00    3.763024e-01    2.080503e-01    0.000000e+00    0.000000e+00    0.000000e+00    0.000000e+00
    0.000000e+00    2.703457e-01    1.858985e-01    0.000000e+00    0.000000e+00    0.000000e+00    0.000000e+00
    0.000000e+00    4.381512e-01    1.040252e-01    0.000000e+00    0.000000e+00    0.000000e+00    0.000000e+00
    0.000000e+00    3.131512e-01    1.040252e-01    0.000000e+00    0.000000e+00    0.000000e+00    0.000000e+00
    0.000000e+00    5.963917e-01    2.464130e-01    0.000000e+00    0.000000e+00    0.000000e+00    0.000000e+00
    0.000000e+00    5.481959e-01    1.232065e-01    0.000000e+00    0.000000e+00    0.000000e+00    0.000000e+00
    0.000000e+00    7.098918e-01    2.100892e-01    0.000000e+00    0.000000e+00    0.000000e+00    0.000000e+00
    0.000000e+00    6.731959e-01    1.232065e-01    0.000000e+00    0.000000e+00    0.000000e+00    0.000000e+00
    0.000000e+00    4.863471e-01    2.272317e-01    0.000000e+00    0.000000e+00    0.000000e+00    0.000000e+00
    0.000000e+00    7.925840e-01    3.892090e-01    0.000000e+00    0.000000e+00    0.000000e+00    0.000000e+00
    0.000000e+00    8.079880e-01    2.814872e-01    0.000000e+00    0.000000e+00    0.000000e+00    0.000000e+00
    0.000000e+00    8.962920e-01    4.446045e-01    0.000000e+00    0.000000e+00    0.000000e+00    0.000000e+00
    0.000000e+00    8.962920e-01    3.196045e-01    0.000000e+00    0.000000e+00    0.000000e+00    0.000000e+00
    0.000000e+00    8.015401e-01    6.161979e-01    0.000000e+00    0.000000e+00    0.000000e+00    0.000000e+00
    0.000000e+00    9.007701e-01    5.580990e-01    0.000000e+00    0.000000e+00    0.000000e+00    0.000000e+00
    0.000000e+00    8.175311e-01    7.235659e-01    0.000000e+00    0.000000e+00    0.000000e+00    0.000000e+00
    0.000000e+00    9.007701e-01    6.830990e-01    0.000000e+00    0.000000e+00    0.000000e+00    0.000000e+00
    0.000000e+00    7.970621e-01    5.027035e-01    0.000000e+00    0.000000e+00    0.000000e+00    0.000000e+00
    0.000000e+00    6.221438e-01    7.822423e-01    0.000000e+00    0.000000e+00    0.000000e+00    0.000000e+00
    0.000000e+00    7.278330e-01    8.065881e-01    0.000000e+00    0.000000e+00    0.000000e+00    0.000000e+00
    0.000000e+00    5.610719e-01    8.911211e-01    0.000000e+00    0.000000e+00    0.000000e+00    0.000000e+00
    0.000000e+00    6.860719e-01    8.911211e-01    0.000000e+00    0.000000e+00    0.000000e+00    0.000000e+00
    0.000000e+00    4.041857e-01    7.428622e-01    0.000000e+00    0.000000e+00    0.000000e+00    0.000000e+00
    0.000000e+00    4.520928e-01    8.714311e-01    0.000000e+00    0.000000e+00    0.000000e+00    0.000000e+00
    0.000000e+00    2.912927e-01    7.815742e-01    0.000000e+00    0.000000e+00    0.000000e+00    0.000000e+00
    0.000000e+00    3.270928e-01    8.714311e-01    0.000000e+00    0.000000e+00    0.000000e+00    0.000000e+00
    0.000000e+00    5.131647e-01    7.625522e-01    0.000000e+00    0.000000e+00    0.000000e+00    0.000000e+00
    0.000000e+00    2.084547e-01    6.003148e-01    0.000000e+00    0.000000e+00    0.000000e+00    0.000000e+00
    0.000000e+00    1.934272e-01    7.103005e-01    0.000000e+00    0.000000e+00    0.000000e+00    0.000000e+00
    0.000000e+00    1.042274e-01    5.501574e-01    0.000000e+00    0.000000e+00    0.000000e+00    0.000000e+00
    0.000000e+00    1.042274e-01    6.751574e-01    0.000000e+00    0.000000e+00    0.000000e+00    0.000000e+00
    0.000000e+00    1.965951e-01    3.740483e-01    0.000000e+00    0.000000e+00    0.000000e+00    0.000000e+00
    0.000000e+00    9.829757e-02    4.370241e-01    0.000000e+00    0.000000e+00    0.000000e+00    0.000000e+00
    0.000000e+00    1.804921e-01    2.688975e-01    0.000000e+00    0.000000e+00    0.000000e+00    0.000000e+00
    0.000000e+00    9.829757e-02    3.120241e-01    0.000000e+00    0.000000e+00    0.000000e+00    0.000000e+00
    0.000000e+00    2.025249e-01    4.871815e-01    0.000000e+00    0.000000e+00    0.000000e+00    0.000000e+00
    0.000000e+00    7.118420e-01    6.992201e-01    0.000000e+00    0.000000e+00    0.000000e+00    0.000000e+00
    0.000000e+00    3.063202e-01    6.715885e-01    0.000000e+00    0.000000e+00    0.000000e+00    0.000000e+00
    0.000000e+00    6.944878e-01    3.178110e-01    0.000000e+00    0.000000e+00    0.000000e+00    0.000000e+00
    0.000000e+00    2.864488e-01    2.910493e-01    0.000000e+00    0.000000e+00    0.000000e+00    0.000000e+00
    0.000000e+00    4.055283e-01    4.540265e-01    0.000000e+00    0.000000e+00    0.000000e+00    0.000000e+00
    0.000000e+00    3.909153e-01    3.310384e-01    0.000000e+00    0.000000e+00    0.000000e+00    0.000000e+00
    0.000000e+00    5.009600e-01    3.502198e-01    0.000000e+00    0.000000e+00    0.000000e+00    0.000000e+00
    0.000000e+00    6.928721e-01    4.597582e-01    0.000000e+00    0.000000e+00    0.000000e+00    0.000000e+00
    0.000000e+00    3.010617e-01    4.140374e-01    0.000000e+00    0.000000e+00    0.000000e+00    0.000000e+00
    0.000000e+00    6.973502e-01    5.732527e-01    0.000000e+00    0.000000e+00    0.000000e+00    0.000000e+00
    0.000000e+00    6.076520e-01    6.562749e-01    0.000000e+00    0.000000e+00    0.000000e+00    0.000000e+00
    0.000000e+00    4.048570e-01    5.984444e-01    0.000000e+00    0.000000e+00    0.000000e+00    0.000000e+00
    0.000000e+00    3.069915e-01    5.271707e-01    0.000000e+00    0.000000e+00    0.000000e+00    0.000000e+00
    0.000000e+00    5.931602e-01    5.303075e-01    0.000000e+00    0.000000e+00    0.000000e+00    0.000000e+00
    0.000000e+00    5.947760e-01    3.883602e-01    0.000000e+00    0.000000e+00    0.000000e+00    0.000000e+00
    0.000000e+00    4.986730e-01    6.365848e-01    0.000000e+00    0.000000e+00    0.000000e+00    0.000000e+00
    0.000000e+00    4.993443e-01    4.921670e-01    0.000000e+00    0.000000e+00    0.000000e+00    0.000000e+00
    1.250000e-01    0.000000e+00    1.000000e+00   -3.793332e-09   -1.265181e-09    2.278637e-09    4.602416e-09
    2.500000e-01    0.000000e+00    1.000000e+00   -6.994433e-09   -2.404173e-09    3.172907e-09    8.047949e-09
    3.750000e-01    0.000000e+00    1.000000e+00   -1.021170e-08   -4.452928e-09    3.627833e-09    1.171617e-08
    5.000000e-01    0.000000e+00    1.000000e+00   -1.345389e-08   -7.379463e-09    3.844681e-09    1.581914e-08
    6.250000e-01    0.000000e+00    1.000000e+00   -1.673255e-08   -1.121175e-08    3.915631e-09    2.051862e-08
    7.500000e-01    0.000000e+00    1.000000e+00   -2.000060e-08   -1.590453e-08    3.923517e-09    2.585289e-08
    8.750000e-01    0.000000e+00    1.000000e+00   -2.325163e-08   -2.144812e-08    3.895270e-09    3.187215e-08
    1.000000e+00    0.000000e+00    1.000000e+00   -2.647268e-08   -2.781402e-08    3.853046e-09    3.859104e-08
    1.125000e+00    0.000000e+00    1.000000e+00   -2.965538e-08   -3.498743e-08    3.803643e-09    4.602205e-08
    1.250000e+00    0.000000e+00    1.000000e+00   -3.279972e-08   -4.295735e-08    3.751335e-09    5.417774e-08
    1.375000e+00    0.000000e+00    1.000000e+00   -3.589931e-08   -5.170799e-08    3.697609e-09    6.305671e-08
    1.500000e+00    0.000000e+00    1.000000e+00   -3.895813e-08   -6.123053e-08    3.643006e-09    7.266488e-08
    1.625000e+00    0.000000e+00    1.000000e+00   -4.197024e-08   -7.151125e-08    3.589352e-09    8.299544e-08
    1.750000e+00    0.000000e+00    1.000000e+00   -4.494008e-08   -8.254121e-08    3.536003e-09    9.404873e-08
    1.875000e+00    0.000000e+00    1.000000e+00   -4.786231e-08   -9.430614e-08    3.482293e-09    1.058139e-07
    2.000000e+00    0.000000e+00    1.000000e+00   -5.074357e-08   -1.067982e-07    3.428515e-09    1.182900e-07
    2.125000e+00    0.000000e+00    1.000000e+00   -5.357750e-08   -1.200034e-07    3.374872e-09    1.314639e-07
    2.250000e+00    0.000000e+00    1.000000e+00   -5.636909e-08   -1.339132e-07    3.320599e-09    1.453315e-07
    2.375000e+00    0.000000e+00    1.000000e+00   -5.911332e-08   -1.485133e-07    3.266008e-09    1.598789e-07
    2.500000e+00    0.000000e+00    1.000000e+00   -6.181573e-08   -1.637962e-07    3.213084e-09    1.751020e-07
    2.625000e+00    0.000000e+00    1.000000e+00   -6.446986e-08   -1.797460e-07    3.159829e-09    1.909843e-07
    2.750000e+00    0.000000e+00    1.000000e+00   -6.708351e-08   -1.963564e-07    3.106083e-09    2.075228e-07
    2.875000e+00    0.000000e+00    1.000000e+00   -6.964845e-08   -2.136124e-07    3.053102e-09    2.247009e-07
    3.000000e+00    0.000000e+00    1.000000e+00   -7.216920e-08   -2.315052e-07    2.999636e-09    2.425119e-07
    3.125000e+00    0.000000e+00    1.000000e+00   -7.464673e-08   -2.500234e-07    2.945493e-09    2.609454e-07
    3.250000e+00    0.000000e+00    1.000000e+00   -7.708242e-08   -2.691556e-07    2.892094e-09    2.799907e-07
    3.375000e+00    0.000000e+00    1.000000e+00   -7.947001e-08   -2.888895e-07    2.839442e-09    2.996342e-07
    3.500000e+00    0.000000e+00    1.000000e+00   -8.181506e-08   -3.092163e-07    2.785654e-09    3.198690e-07
    3.625000e+00    0.000000e+00    1.000000e+00   -8.411294e-08   -3.301225e-07    2.731546e-09    3.406807e-07
    3.750000e+00    0.000000e+00    1.000000e+00   -8.636898e-08   -3.515994e-07    2.677403e-09    3.620620e-07
    3.875000e+00    0.000000e+00    1.000000e+00   -8.857748e-08   -3.736328e-07    2.623281e-09    3.839978e-07
    4.000000e+00    0.000000e+00    1.000000e+00   -9.074390e-08   -3.962147e-07    2.569786e-09    4.064814e-07
    4.125000e+00    0.000000e+00    1.000000e+00   -9.286247e-08   -4.193300e-07    2.515986e-09    4.294967e-07
    4.250000e+00    0.000000e+00    1.000000e+00   -9.494031e-08   -4.429708e-07    2.462731e-09    4.530374e-07
    4.375000e+00    0.000000e+00    1.000000e+00   -9.697017e-08   -4.671245e-07    2.409798e-09    4.770894e-07
    4.500000e+00    0.000000e+00    1.000000e+00   -9.895795e-08   -4.917819e-07    2.355770e-09    5.016449e-07
    4.625000e+00    0.000000e+00    1.000000e+00   -1.008981e-07   -5.169281e-07    2.301829e-09    5.266881e-07
    4.750000e+00    0.000000e+00    1.000000e+00   -1.027973e-07   -5.425560e-07    2.248485e-09    5.522131e-07
    4.875000e+00    0.000000e+00    1.000000e+00   -1.046483e-07   -5.686514e-07    2.195076e-09    5.782045e-07
    5.000000e+00    0.000000e+00    1.000000e+00   -1.064578e-07   -5.952063e-07    2.141625e-09    6.046556e-07
    5.125000e+00    0.000000e+00    1.000000e+00   -1.082200e-07   -6.222060e-07    2.088129e-09    6.315506e-07
    5.250000e+00    0.000000e+00    1.000000e+00   -1.099403e-07   -6.496422e-07    2.034370e-09    6.588824e-07
    5.375000e+00    0.000000e+00    1.000000e+00   -1.116128e-07   -6.775016e-07    1.981050e-09    6.866366e-07
    5.500000e+00    0.000000e+00    1.000000e+00   -1.132432e-07   -7.057750e-07    1.927163e-09    7.148049e-07
    5.625000e+00    0.000000e+00    1.000000e+00   -1.148267e-07   -7.344478e-07    1.873512e-09    7.433723e-07
    5.750000e+00    0.000000e+00    1.000000e+00   -1.163687e-07   -7.635129e-07    1.819661e-09    7.723322e-07
    5.875000e+00    0.000000e+00    1.000000e+00   -1.178631e-07   -7.929573e-07    1.765943e-09    8.016708e-07
    6.000000e+00    0.000000e+00    1.000000e+00   -1.193151e-07   -8.227712e-07    1.711370e-09    8.313792e-07
    6.125000e+00    0.000000e+00    1.000000e+00   -1.207195e-07   -8.529404e-07    1.657020e-09    8.614426e-07
    6.250000e+00    0.000000e+00    1.000000e+00   -1.220823e-07   -8.834569e-07    1.603722e-09    8.918535e-07
    6.375000e+00    0.000000e+00    1.000000e+00   -1.233973e-07   -9.143067e-07    1.550423e-09    9.225974e-07
    6.500000e+00    0.000000e+00    1.000000e+00   -1.246707e-07   -9.454823e-07    1.497065e-09    9.536675e-07
    6.625000e+00    0.000000e+00    1.000000e+00   -1.258967e-07   -9.769670e-07    1.443889e-09    9.850465e-07
    6.750000e+00    0.000000e+00    1.000000e+00   -1.270816e-07   -1.008755e-06    1.390080e-09    1.016729e-06
    6.875000e+00    0.000000e+00    1.000000e+00   -1.282195e-07   -1.040832e-06    1.336765e-09    1.048701e-06
    7.000000e+00    0.000000e+00    1.000000e+00   -1.293149e-07   -1.073190e-06    1.283618e-09    1.080953e-06
    7.125000e+00    0.000000e+00    1.000000e+00   -1.303625e-07   -1.105814e-06    1.229777e-09    1.113473e-06
    7.250000e+00    0.000000e+00    1.000000e+00   -1.313683e-07   -1.138698e-06    1.176188e-09    1.146251e-06
    7.375000e+00    0.000000e+00    1.000000e+00   -1.323264e-07   -1.171824e-06    1.122551e-09    1.179272e-06
    7.500000e+00    0.000000e+00    1.000000e+00   -1.332436e-07   -1.205186e-06    1.068377e-09    1.212530e-06
    7.625000e+00    0.000000e+00    1.000000e+00   -1.341134e-07   -1.238771e-06    1.014744e-09    1.246011e-06
    7.750000e+00    0.000000e+00    1.000000e+00   -1.349407e-07   -1.272570e-06    9.604011e-10    1.279705e-06
    7.875000e+00    0.000000e+00    1.000000e+00   -1.357205e-07   -1.306568e-06    9.062533e-10    1.313598e-06
    8.000000e+00    0.000000e+00    1.000000e+00   -1.364585e-07   -1.340757e-06    8.523479e-10    1.347683e-06
    8.125000e+00    0.000000e+00    1.000000e+00   -1.371486e-07   -1.375122e-06    7.984317e-10    1.381945e-06
    8.250000e+00    0.000000e+00    1.000000e+00   -1.377976e-07   -1.409656e-06    7.457269e-10    1.416375e-06
    8.375000e+00    0.000000e+00    1.000000e+00   -1.383986e-07   -1.444345e-06    6.929687e-10    1.450961e-06
    8.500000e+00    0.000000e+00    1.000000e+00   -1.389587e-07   -1.479181e-06    6.397352e-10    1.485694e-06
    8.625000e+00    0.000000e+00    1.000000e+00   -1.394700e-07   -1.514149e-06    5.866787e-10    1.520559e-06
    8.750000e+00    0.000000e+00    1.000000e+00   -1.399376e-07   -1.549241e-06    5.326100e-10    1.555548e-06
    8.875000e+00    0.000000e+00    1.000000e+00   -1.403620e-07   -1.584444e-06    4.782566e-10    1.590649e-06
    9.000000e+00    0.000000e+00    1.000000e+00   -1.407440e-07   -1.619749e-06    4.254381e-10    1.625852e-06
    9.125000e+00    0.000000e+00    1.000000e+00   -1.410766e-07   -1.655140e-06    3.730915e-10    1.661141e-06
    9.250000e+00    0.000000e+00    1.000000e+00   -1.413672e-07   -1.690610e-06    3.200417e-10    1.696510e-06
    9.375000e+00    0.000000e+00    1.000000e+00   -1.416130e-07   -1.726147e-06    2.672141e-10    1.731947e-06
    9.500000e+00    0.000000e+00    1.000000e+00   -1.418166e-07   -1.761741e-06    2.156820e-10    1.767440e-06
    9.625000e+00    0.000000e+00    1.000000e+00   -1.419743e-07   -1.797378e-06    1.638355e-10    1.802977e-06
    9.750000e+00    0.000000e+00    1.000000e+00   -1.420929e-07   -1.833057e-06    1.109275e-10    1.838556e-06
    9.875000e+00    0.000000e+00    1.000000e+00   -1.421932e-07   -1.868803e-06    2.908142e-11    1.874204e-06
    1.000000e+01    0.000000e+00    1.000000e+00   -1.422542e-07   -1.904785e-06   -8.847485e-11    1.910089e-06
    1.000000e+01    0.000000e+00    8.750000e-01   -1.422767e-07   -1.904564e-06   -2.624241e-11    1.909871e-06
    1.000000e+01    0.000000e+00    7.500000e-01   -1.423479e-07   -1.904775e-06   -6.418226e-12    1.910087e-06
    1.000000e+01    0.000000e+00    6.250000e-01   -1.422980e-07   -1.904556e-06   -2.864395e-12    1.909864e-06
    1.000000e+01    0.000000e+00    5.000000e-01   -1.423175e-07   -1.904735e-06    5.868887e-12    1.910045e-06
    1.000000e+01    0.000000e+00    3.750000e-01   -1.423039e-07   -1.904577e-06   -5.317349e-12    1.909886e-06
    1.000000e+01    0.000000e+00    2.500000e-01   -1.423079e-07   -1.904704e-06   -1.718706e-11    1.910012e-06
    1.000000e+01    0.000000e+00    1.250000e-01   -1.422734e-07   -1.904552e-06    1.238890e-11    1.909859e-06
    1.000000e+01    0.000000e+00    0.000000e+00   -1.422683e-07   -1.904788e-06    7.458841e-11    1.910093e-06
    9.875000e+00    0.000000e+00    0.000000e+00   -1.421983e-07   -1.868804e-06   -3.334882e-11    1.874206e-06
    9.750000e+00    0.000000e+00    0.000000e+00   -1.420943e-07   -1.833056e-06   -1.179357e-10    1.838555e-06
    9.625000e+00    0.000000e+00    0.000000e+00   -1.419733e-07   -1.797377e-06   -1.699527e-10    1.802975e-06
    9.500000e+00    0.000000e+00    0.000000e+00   -1.418135e-07   -1.761740e-06   -2.226350e-10    1.767438e-06
    9.375000e+00    0.000000e+00    0.000000e+00   -1.416129e-07   -1.726148e-06   -2.743074e-10    1.731948e-06
    9.250000e+00    0.000000e+00    0.000000e+00   -1.413697e-07   -1.690613e-06   -3.262564e-10    1.696513e-06
    9.125000e+00    0.000000e+00    0.000000e+00   -1.410782e-07   -1.655141e-06   -3.790807e-10    1.661143e-06
    9.000000e+00    0.000000e+00    0.000000e+00   -1.407445e-07   -1.619749e-06   -4.316237e-10    1.625852e-06
    8.875000e+00    0.000000e+00    0.000000e+00   -1.403636e-07   -1.584445e-06   -4.847483e-10    1.590650e-06
    8.750000e+00    0.000000e+00    0.000000e+00   -1.399407e-07   -1.549242e-06   -5.378558e-10    1.555549e-06
    8.625000e+00    0.000000e+00    0.000000e+00   -1.394700e-07   -1.514149e-06   -5.917857e-10    1.520559e-06
    8.500000e+00    0.000000e+00    0.000000e+00   -1.389590e-07   -1.479182e-06   -6.453234e-10    1.485695e-06
    8.375000e+00    0.000000e+00    0.000000e+00   -1.383993e-07   -1.444345e-06   -6.982757e-10    1.450961e-06
    8.250000e+00    0.000000e+00    0.000000e+00   -1.377983e-07   -1.409656e-06   -7.526059e-10    1.416376e-06
    8.125000e+00    0.000000e+00    0.000000e+00   -1.371499e-07   -1.375121e-06   -8.060662e-10    1.381944e-06
    8.000000e+00    0.000000e+00    0.000000e+00   -1.364586e-07   -1.340755e-06   -8.592092e-10    1.347682e-06
    7.875000e+00    0.000000e+00    0.000000e+00   -1.357201e-07   -1.306567e-06   -9.132017e-10    1.313598e-06
    7.750000e+00    0.000000e+00    0.000000e+00   -1.349408e-07   -1.272570e-06   -9.670290e-10    1.279705e-06
    7.625000e+00    0.000000e+00    0.000000e+00   -1.341138e-07   -1.238772e-06   -1.020163e-09    1.246011e-06
    7.500000e+00    0.000000e+00    0.000000e+00   -1.332439e-07   -1.205187e-06   -1.073995e-09    1.212531e-06
    7.375000e+00    0.000000e+00    0.000000e+00   -1.323274e-07   -1.171825e-06   -1.128124e-09    1.179273e-06
    7.250000e+00    0.000000e+00    0.000000e+00   -1.313692e-07   -1.138698e-06   -1.180803e-09    1.146251e-06
    7.125000e+00    0.000000e+00    0.000000e+00   -1.303628e-07   -1.105816e-06   -1.234135e-09    1.113474e-06
    7.000000e+00    0.000000e+00    0.000000e+00   -1.293154e-07   -1.073191e-06   -1.287830e-09    1.080955e-06
    6.875000e+00    0.000000e+00    0.000000e+00   -1.282198e-07   -1.040833e-06   -1.341024e-09    1.048702e-06
    6.750000e+00    0.000000e+00    0.000000e+00   -1.270815e-07   -1.008755e-06   -1.395380e-09    1.016730e-06
    6.625000e+00    0.000000e+00    0.000000e+00   -1.258970e-07   -9.769677e-07   -1.449728e-09    9.850472e-07
    6.500000e+00    0.000000e+00    0.000000e+00   -1.246723e-07   -9.454827e-07   -1.502258e-09    9.536681e-07
    6.375000e+00    0.000000e+00    0.000000e+00   -1.233986e-07   -9.143067e-07   -1.553337e-09    9.225976e-07
    6.250000e+00    0.000000e+00    0.000000e+00   -1.220822e-07   -8.834569e-07   -1.607358e-09    8.918536e-07
    6.125000e+00    0.000000e+00    0.000000e+00   -1.207195e-07   -8.529408e-07   -1.661900e-09    8.614430e-07
    6.000000e+00    0.000000e+00    0.000000e+00   -1.193149e-07   -8.227716e-07   -1.715590e-09    8.313796e-07
    5.875000e+00    0.000000e+00    0.000000e+00   -1.178629e-07   -7.929582e-07   -1.769370e-09    8.016717e-07
    5.750000e+00    0.000000e+00    0.000000e+00   -1.163686e-07   -7.635140e-07   -1.822310e-09    7.723332e-07
    5.625000e+00    0.000000e+00    0.000000e+00   -1.148263e-07   -7.344489e-07   -1.875888e-09    7.433733e-07
    5.500000e+00    0.000000e+00    0.000000e+00   -1.132435e-07   -7.057757e-07   -1.930054e-09    7.148056e-07
    5.375000e+00    0.000000e+00    0.000000e+00   -1.116124e-07   -6.775016e-07   -1.983477e-09    6.866365e-07
    5.250000e+00    0.000000e+00    0.000000e+00   -1.099382e-07   -6.496417e-07   -2.037181e-09    6.588815e-07
    5.125000e+00    0.000000e+00    0.000000e+00   -1.082197e-07   -6.222068e-07   -2.090721e-09    6.315514e-07
    5.000000e+00    0.000000e+00    0.000000e+00   -1.064590e-07   -5.952087e-07   -2.143505e-09    6.046582e-07
    4.875000e+00    0.000000e+00    0.000000e+00   -1.046490e-07   -5.686534e-07   -2.196622e-09    5.782067e-07
    4.750000e+00    0.000000e+00    0.000000e+00   -1.027977e-07   -5.425579e-07   -2.250404e-09    5.522151e-07
    4.625000e+00    0.000000e+00    0.000000e+00   -1.008993e-07   -5.169299e-07   -2.303983e-09    5.266901e-07
    4.500000e+00    0.000000e+00    0.000000e+00   -9.895870e-08   -4.917829e-07   -2.357327e-09    5.016461e-07
    4.375000e+00    0.000000e+00    0.000000e+00   -9.697084e-08   -4.671260e-07   -2.411451e-09    4.770911e-07
    4.250000e+00    0.000000e+00    0.000000e+00   -9.494088e-08   -4.429718e-07   -2.464682e-09    4.530385e-07
    4.125000e+00    0.000000e+00    0.000000e+00   -9.286306e-08   -4.193307e-07   -2.518282e-09    4.294975e-07
    4.000000e+00    0.000000e+00    0.000000e+00   -9.074367e-08   -3.962155e-07   -2.571879e-09    4.064822e-07
    3.875000e+00    0.000000e+00    0.000000e+00   -8.857735e-08   -3.736336e-07   -2.625366e-09    3.839986e-07
    3.750000e+00    0.000000e+00    0.000000e+00   -8.636931e-08   -3.516004e-07   -2.678833e-09    3.620630e-07
    3.625000e+00    0.000000e+00    0.000000e+00   -8.411271e-08   -3.301233e-07   -2.731941e-09    3.406814e-07
    3.500000e+00    0.000000e+00    0.000000e+00   -8.181353e-08   -3.092170e-07   -2.785894e-09    3.198693e-07
    3.375000e+00    0.000000e+00    0.000000e+00   -7.947055e-08   -2.888915e-07   -2.839348e-09    2.996363e-07
    3.250000e+00    0.000000e+00    0.000000e+00   -7.708389e-08   -2.691576e-07   -2.892793e-09    2.799931e-07
    3.125000e+00    0.000000e+00    0.000000e+00   -7.464921e-08   -2.500245e-07   -2.947094e-09    2.609472e-07
    3.000000e+00    0.000000e+00    0.000000e+00   -7.217289e-08   -2.315066e-07   -3.000164e-09    2.425144e-07
    2.875000e+00    0.000000e+00    0.000000e+00   -6.964846e-08   -2.136131e-07   -3.053678e-09    2.247015e-07
    2.750000e+00    0.000000e+00    0.000000e+00   -6.708289e-08   -1.963576e-07   -3.107039e-09    2.075237e-07
    2.625000e+00    0.000000e+00    0.000000e+00   -6.447003e-08   -1.797466e-07   -3.160471e-09    1.909849e-07
    2.500000e+00    0.000000e+00    0.000000e+00   -6.181547e-08   -1.637961e-07   -3.213729e-09    1.751018e-07
    2.375000e+00    0.000000e+00    0.000000e+00   -5.911280e-08   -1.485143e-07   -3.266678e-09    1.598796e-07
    2.250000e+00    0.000000e+00    0.000000e+00   -5.636927e-08   -1.339150e-07   -3.320486e-09    1.453332e-07
    2.125000e+00    0.000000e+00    0.000000e+00   -5.357779e-08   -1.200045e-07   -3.374006e-09    1.314650e-07
    2.000000e+00    0.000000e+00    0.000000e+00   -5.074409e-08   -1.067989e-07   -3.428428e-09    1.182909e-07
    1.875000e+00    0.000000e+00    0.000000e+00   -4.786211e-08   -9.430649e-08   -3.482557e-09    1.058141e-07
    1.750000e+00    0.000000e+00    0.000000e+00   -4.493763e-08   -8.254104e-08   -3.536399e-09    9.404744e-08
    1.625000e+00    0.000000e+00    0.000000e+00   -4.197055e-08   -7.151289e-08   -3.589430e-09    8.299702e-08
    1.500000e+00    0.000000e+00    0.000000e+00   -3.895974e-08   -6.123273e-08   -3.642347e-09    7.266756e-08
    1.375000e+00    0.000000e+00    0.000000e+00   -3.590095e-08   -5.170931e-08   -3.696742e-09    6.305868e-08
    1.250000e+00    0.000000e+00    0.000000e+00   -3.280085e-08   -4.295770e-08   -3.750150e-09    5.417863e-08
    1.125000e+00    0.000000e+00    0.000000e+00   -2.965597e-08   -3.498840e-08   -3.802706e-09    4.602309e-08
    1.000000e+00    0.000000e+00    0.000000e+00   -2.647358e-08   -2.781515e-08   -3.852700e-09    3.859244e-08
    8.750000e-01    0.000000e+00    0.000000e+00   -2.325213e-08   -2.144885e-08   -3.894941e-09    3.187296e-08
    7.500000e-01    0.000000e+00    0.000000e+00   -1.999912e-08   -1.590598e-08   -3.924115e-09    2.585272e-08
    6.250000e-01    0.000000e+00    0.000000e+00   -1.672824e-08   -1.121184e-08   -3.915457e-09    2.051512e-08