TITLE="C3D8"
VARIABLES="X""Y""Z""U""V""W""M"
ZONE T="flow-field",N=    1512,E=    1104,ET=BRICK,F=FEPOINT
    4.500000e+01    1.500000e+01    1.200000e+01             Inf            -Inf             NaN             NaN
    4.500000e+01    1.437500e+01    1.200000e+01             NaN             NaN             NaN             NaN
    4.500000e+01    1.375000e+01    1.200000e+01             NaN             NaN             NaN             NaN
    4.500000e+01    1.312500e+01    1.200000e+01             NaN             NaN             NaN             NaN
    4.500000e+01    1.250000e+01    1.200000e+01             NaN             NaN             NaN             NaN
    4.500000e+01    1.187500e+01    1.200000e+01             NaN             NaN             NaN             NaN
    4.500000e+01    1.125000e+01    1.200000e+01             NaN             NaN             NaN             NaN
    4.500000e+01    1.062500e+01    1.200000e+01             NaN             NaN             NaN             NaN
    4.500000e+01    1.000000e+01    1.200000e+01             NaN             NaN             NaN             NaN
    4.500000e+01    1.500000e+01    1.000000e+01             NaN             NaN             NaN             NaN
    4.500000e+01    1.437500e+01    1.000000e+01             NaN             NaN             NaN             NaN
    4.500000e+01    1.375000e+01    1.000000e+01             NaN             NaN             NaN             NaN
    4.500000e+01    1.312500e+01    1.000000e+01             NaN             NaN             NaN             NaN
    4.500000e+01    1.250000e+01    1.000000e+01             NaN             NaN             NaN             NaN
    4.500000e+01    1.187500e+01    1.000000e+01             NaN             NaN             NaN             NaN
    4.500000e+01    1.125000e+01    1.000000e+01             NaN             NaN             NaN             NaN
    4.500000e+01    1.062500e+01    1.000000e+01             NaN             NaN             NaN             NaN
    4.500000e+01    1.000000e+01    1.000000e+01             NaN             NaN             NaN             NaN
    4.500000e+01    1.500000e+01    8.000000e+00             NaN             NaN             NaN             NaN
    4.500000e+01    1.437500e+01    8.000000e+00             NaN             NaN             NaN             NaN
    4.500000e+01    1.375000e+01    8.000000e+00             NaN             NaN             NaN             NaN
    4.500000e+01    1.312500e+01    8.000000e+00             NaN             NaN             NaN             NaN
    4.500000e+01    1.250000e+01    8.000000e+00             NaN             NaN             NaN             NaN
    4.500000e+01    1.187500e+01    8.000000e+00             NaN             NaN             NaN             NaN
    4.500000e+01    1.125000e+01    8.000000e+00             NaN             NaN             NaN             NaN
    4.500000e+01    1.062500e+01    8.000000e+00             NaN             NaN             NaN             NaN
    4.500000e+01    1.000000e+01    8.000000e+00             NaN             NaN             NaN             NaN
    4.500000e+01    1.500000e+01    6.000000e+00             NaN             NaN             NaN             NaN
    4.500000e+01    1.437500e+01    6.000000e+00             NaN             NaN             NaN             NaN
    4.500000e+01    1.375000e+01    6.000000e+00             NaN             NaN             NaN             NaN
    4.500000e+01    1.312500e+01    6.000000e+00             NaN             NaN             NaN             NaN
    4.500000e+01    1.250000e+01    6.000000e+00             NaN             NaN             NaN             NaN
    4.500000e+01    1.187500e+01    6.000000e+00             NaN             NaN             NaN             NaN
    4.500000e+01    1.125000e+01    6.000000e+00             NaN             NaN             NaN             NaN
    4.500000e+01    1.062500e+01    6.000000e+00             NaN             NaN             NaN             NaN
    4.500000e+01    1.000000e+01    6.000000e+00             NaN             NaN             NaN             NaN
    4.500000e+01    1.500000e+01    4.000000e+00             NaN             NaN             NaN             NaN
    4.500000e+01    1.437500e+01    4.000000e+00             NaN             NaN             NaN             NaN
    4.500000e+01    1.375000e+01    4.000000e+00             NaN             NaN             NaN             NaN
    4.500000e+01    1.312500e+01    4.000000e+00             NaN             NaN             NaN             NaN
    4.500000e+01    1.250000e+01    4.000000e+00             NaN             NaN             NaN             NaN
    4.500000e+01    1.187500e+01    4.000000e+00             NaN             NaN             NaN             NaN
    4.500000e+01    1.125000e+01    4.000000e+00             NaN             NaN             NaN             NaN
    4.500000e+01    1.062500e+01    4.000000e+00             NaN             NaN             NaN             NaN
    4.500000e+01    1.000000e+01    4.000000e+00             NaN             NaN             NaN             NaN
    4.500000e+01    1.500000e+01    2.000000e+00             NaN             NaN             NaN             NaN
    4.500000e+01    1.437500e+01    2.000000e+00             NaN             NaN             NaN             NaN
    4.500000e+01    1.375000e+01    2.000000e+00             NaN             NaN             NaN             NaN
    4.500000e+01    1.312500e+01    2.000000e+00             NaN             NaN             NaN             NaN
    4.500000e+01    1.250000e+01    2.000000e+00             NaN             NaN             NaN             NaN
    4.500000e+01    1.187500e+01    2.000000e+00             NaN             NaN             NaN             NaN
    4.500000e+01    1.125000e+01    2.000000e+00             NaN             NaN             NaN             NaN
    4.500000e+01    1.062500e+01    2.000000e+00             NaN             NaN             NaN             NaN
    4.500000e+01    1.000000e+01    2.000000e+00             NaN             NaN             NaN             NaN
    4.500000e+01    1.500000e+01    0.000000e+00             NaN             NaN             NaN             NaN
    4.500000e+01    1.437500e+01    0.000000e+00             NaN             NaN             NaN             NaN
    4.500000e+01    1.375000e+01    0.000000e+00             NaN             NaN             NaN             NaN
    4.500000e+01    1.312500e+01    0.000000e+00             NaN             NaN             NaN             NaN
    4.500000e+01    1.250000e+01    0.000000e+00             NaN             NaN             NaN             NaN
    4.500000e+01    1.187500e+01    0.000000e+00             NaN             NaN             NaN             NaN
    4.500000e+01    1.125000e+01    0.000000e+00             NaN             NaN             NaN             NaN
    4.500000e+01    1.062500e+01    0.000000e+00             NaN             NaN             NaN             NaN
    4.500000e+01    1.000000e+01    0.000000e+00             NaN             NaN             NaN             NaN
    4.304348e+01    1.500000e+01    1.200000e+01             NaN             NaN             NaN             NaN
    4.304348e+01    1.432065e+01    1.200000e+01             NaN             NaN             NaN             NaN
    4.304348e+01    1.364130e+01    1.200000e+01             NaN             NaN             NaN             NaN
    4.304348e+01    1.296196e+01    1.200000e+01             NaN             NaN             NaN             NaN
    4.304348e+01    1.228261e+01    1.200000e+01             NaN             NaN             NaN             NaN
    4.304348e+01    1.160326e+01    1.200000e+01             NaN             NaN             NaN             NaN
    4.304348e+01    1.092391e+01    1.200000e+01             NaN             NaN             NaN             NaN
    4.304348e+01    1.024456e+01    1.200000e+01             NaN             NaN             NaN             NaN
    4.304348e+01    9.565217e+00    1.200000e+01             NaN             NaN             NaN             NaN
    4.304348e+01    1.500000e+01    1.000000e+01             NaN             NaN             NaN             NaN
    4.304348e+01    1.432065e+01    1.000000e+01             NaN             NaN             NaN             NaN
    4.304348e+01    1.364130e+01    1.000000e+01             NaN             NaN             NaN             NaN
    4.304348e+01    1.296196e+01    1.000000e+01             NaN             NaN             NaN             NaN
    4.304348e+01    1.228261e+01    1.000000e+01             NaN             NaN             NaN             NaN
    4.304348e+01    1.160326e+01    1.000000e+01             NaN             NaN             NaN             NaN
    4.304348e+01    1.092391e+01    1.000000e+01             NaN             NaN             NaN             NaN
    4.304348e+01    1.024457e+01    1.000000e+01             NaN             NaN             NaN             NaN
    4.304348e+01    9.565218e+00    1.000000e+01             NaN             NaN             NaN             NaN
    4.304348e+01    1.500000e+01    8.000000e+00             NaN             NaN             NaN             NaN
    4.304348e+01    1.432065e+01    8.000000e+00             NaN             NaN             NaN             NaN
    4.304348e+01    1.364130e+01    8.000000e+00             NaN             NaN             NaN             NaN
    4.304348e+01    1.296196e+01    8.000000e+00             NaN             NaN             NaN             NaN
    4.304348e+01    1.228261e+01    8.000000e+00             NaN             NaN             NaN             NaN
    4.304348e+01    1.160326e+01    8.000000e+00             NaN             NaN             NaN             NaN
    4.304348e+01    1.092391e+01    8.000000e+00             NaN             NaN             NaN             NaN
    4.304348e+01    1.024457e+01    8.000000e+00             NaN             NaN             NaN             NaN
    4.304348e+01    9.565218e+00    8.000000e+00             NaN             NaN             NaN             NaN
    4.304348e+01    1.500000e+01    6.000000e+00             NaN             NaN             NaN             NaN
    4.304348e+01    1.432065e+01    6.000000e+00             NaN             NaN             NaN             NaN
    4.304348e+01    1.364130e+01    6.000000e+00             NaN             NaN             NaN             NaN
    4.304348e+01    1.296196e+01    6.000000e+00             NaN             NaN             NaN             NaN
    4.304348e+01    1.228261e+01    6.000000e+00             NaN             NaN             NaN             NaN
    4.304348e+01    1.160326e+01    6.000000e+00             NaN             NaN             NaN             NaN
    4.304348e+01    1.092391e+01    6.000000e+00             NaN             NaN             NaN             NaN
    4.304348e+01    1.024457e+01    6.000000e+00             NaN             NaN             NaN             NaN
    4.304348e+01    9.565218e+00    6.000000e+00             NaN             NaN             NaN             NaN
    4.304348e+01    1.500000e+01    4.000000e+00             NaN             NaN             NaN             NaN
    4.304348e+01    1.432065e+01    4.000000e+00             NaN             NaN             NaN             NaN
    4.304348e+01    1.364130e+01    4.000000e+00             NaN             NaN             NaN             NaN
    4.304348e+01    1.296196e+01    4.000000e+00             NaN             NaN             NaN             NaN
    4.304348e+01    1.228261e+01    4.000000e+00             NaN             NaN             NaN             NaN
    4.304348e+01    1.160326e+01    4.000000e+00             NaN             NaN             NaN             NaN
    4.304348e+01    1.092391e+01    4.000000e+00             NaN             NaN             NaN             NaN
    4.304348e+01    1.024457e+01    4.000000e+00             NaN             NaN             NaN             NaN
    4.304348e+01    9.565218e+00    4.000000e+00             NaN             NaN             NaN             NaN
    4.304348e+01    1.500000e+01    2.000000e+00             NaN             NaN             NaN             NaN
    4.304348e+01    1.432065e+01    2.000000e+00             NaN             NaN             NaN             NaN
    4.304348e+01    1.364130e+01    2.000000e+00             NaN             NaN             NaN             NaN
    4.304348e+01    1.296196e+01    2.000000e+00             NaN             NaN             NaN             NaN
    4.304348e+01    1.228261e+01    2.000000e+00             NaN             NaN             NaN             NaN
    4.304348e+01    1.160326e+01    2.000000e+00             NaN             NaN             NaN             NaN
    4.304348e+01    1.092391e+01    2.000000e+00             NaN             NaN             NaN             NaN
    4.304348e+01    1.024457e+01    2.000000e+00             NaN             NaN             NaN             NaN
    4.304348e+01    9.565218e+00    2.000000e+00             NaN             NaN             NaN             NaN
    4.304348e+01    1.500000e+01    0.000000e+00             NaN             NaN             NaN             NaN
    4.304348e+01    1.432065e+01    0.000000e+00             NaN             NaN             NaN             NaN
    4.304348e+01    1.364130e+01    0.000000e+00             NaN             NaN             NaN             NaN
    4.304348e+01    1.296196e+01    0.000000e+00             NaN             NaN             NaN             NaN
    4.304348e+01    1.228261e+01    0.000000e+00             NaN             NaN             NaN             NaN
    4.304348e+01    1.160326e+01    0.000000e+00             NaN             NaN             NaN             NaN
    4.304348e+01    1.092391e+01    0.000000e+00             NaN             NaN             NaN             NaN
    4.304348e+01    1.024456e+01    0.000000e+00             NaN             NaN             NaN             NaN
    4.304348e+01    9.565217e+00    0.000000e+00             NaN             NaN             NaN             NaN
    4.108696e+01    1.500000e+01    1.200000e+01             NaN             NaN             NaN             NaN
    4.108696e+01    1.426630e+01    1.200000e+01             NaN             NaN             NaN             NaN
    4.108696e+01    1.353261e+01    1.200000e+01             NaN             NaN             NaN             NaN
    4.108696e+01    1.279891e+01    1.200000e+01             NaN             NaN             NaN             NaN
    4.108696e+01    1.206522e+01    1.200000e+01             NaN             NaN             NaN             NaN
    4.108696e+01    1.133152e+01    1.200000e+01             NaN             NaN             NaN             NaN
    4.108696e+01    1.059783e+01    1.200000e+01             NaN             NaN             NaN             NaN
    4.108696e+01    9.864130e+00    1.200000e+01             NaN             NaN             NaN             NaN
    4.108696e+01    9.130435e+00    1.200000e+01             NaN             NaN             NaN             NaN
    4.108696e+01    1.500000e+01    1.000000e+01             NaN             NaN             NaN             NaN
    4.108696e+01    1.426630e+01    1.000000e+01             NaN             NaN             NaN             NaN
    4.108696e+01    1.353261e+01    1.000000e+01             NaN             NaN             NaN             NaN
    4.108696e+01    1.279891e+01    1.000000e+01             NaN             NaN             NaN             NaN
    4.108696e+01    1.206522e+01    1.000000e+01             NaN             NaN             NaN             NaN
    4.108696e+01    1.133152e+01    1.000000e+01             NaN             NaN             NaN             NaN
    4.108696e+01    1.059783e+01    1.000000e+01             NaN             NaN             NaN             NaN
    4.108696e+01    9.864130e+00    1.000000e+01             NaN             NaN             NaN             NaN
    4.108696e+01    9.130435e+00    1.000000e+01             NaN             NaN             NaN             NaN
    4.108696e+01    1.500000e+01    8.000000e+00             NaN             NaN             NaN             NaN
    4.108696e+01    1.426630e+01    8.000000e+00             NaN             NaN             NaN             NaN
    4.108696e+01    1.353261e+01    8.000000e+00             NaN             NaN             NaN             NaN
    4.108696e+01    1.279891e+01    8.000000e+00             NaN             NaN             NaN             NaN
    4.108696e+01    1.206522e+01    8.000000e+00             NaN             NaN             NaN             NaN
    4.108696e+01    1.133152e+01    8.000000e+00             NaN             NaN             NaN             NaN
    4.108696e+01    1.059783e+01    8.000000e+00             NaN             NaN             NaN             NaN
    4.108696e+01    9.864130e+00    8.000000e+00             NaN             NaN             NaN             NaN
    4.108696e+01    9.130435e+00    8.000000e+00             NaN             NaN             NaN             NaN
    4.108696e+01    1.500000e+01    6.000000e+00             NaN             NaN             NaN             NaN
    4.108696e+01    1.426630e+01    6.000000e+00             NaN             NaN             NaN             NaN
    4.108696e+01    1.353261e+01    6.000000e+00             NaN             NaN             NaN             NaN
    4.108696e+01    1.279891e+01    6.000000e+00             NaN             NaN             NaN             NaN
    4.108696e+01    1.206522e+01    6.000000e+00             NaN             NaN             NaN             NaN
    4.108696e+01    1.133152e+01    6.000000e+00             NaN             NaN             NaN             NaN
    4.108696e+01    1.059783e+01    6.000000e+00             NaN             NaN             NaN             NaN
    4.108696e+01    9.864130e+00    6.000000e+00             NaN             NaN             NaN             NaN
    4.108696e+01    9.130435e+00    6.000000e+00             NaN             NaN             NaN             NaN
    4.108696e+01    1.500000e+01    4.000000e+00             NaN             NaN             NaN             NaN
    4.108696e+01    1.426630e+01    4.000000e+00             NaN             NaN             NaN             NaN
    4.108696e+01    1.353261e+01    4.000000e+00             NaN             NaN             NaN             NaN
    4.108696e+01    1.279891e+01    4.000000e+00             NaN             NaN             NaN             NaN
    4.108696e+01    1.206522e+01    4.000000e+00             NaN             NaN             NaN             NaN
    4.108696e+01    1.133152e+01    4.000000e+00             NaN             NaN             NaN             NaN
    4.108696e+01    1.059783e+01    4.000000e+00             NaN             NaN             NaN             NaN
    4.108696e+01    9.864130e+00    4.000000e+00             NaN             NaN             NaN             NaN
    4.108696e+01    9.130435e+00    4.000000e+00             NaN             NaN             NaN             NaN
    4.108696e+01    1.500000e+01    2.000000e+00             NaN             NaN             NaN             NaN
    4.108696e+01    1.426630e+01    2.000000e+00             NaN             NaN             NaN             NaN
    4.108696e+01    1.353261e+01    2.000000e+00             NaN             NaN             NaN             NaN
    4.108696e+01    1.279891e+01    2.000000e+00             NaN             NaN             NaN             NaN
    4.108696e+01    1.206522e+01    2.000000e+00             NaN             NaN             NaN             NaN
    4.108696e+01    1.133152e+01    2.000000e+00             NaN             NaN             NaN             NaN
    4.108696e+01    1.059783e+01    2.000000e+00             NaN             NaN             NaN             NaN
    4.108696e+01    9.864130e+00    2.000000e+00             NaN             NaN             NaN             NaN
    4.108696e+01    9.130435e+00    2.000000e+00             NaN             NaN             NaN             NaN
    4.108696e+01    1.500000e+01    0.000000e+00             NaN             NaN             NaN             NaN
    4.108696e+01    1.426630e+01    0.000000e+00             NaN             NaN             NaN             NaN
    4.108696e+01    1.353261e+01    0.000000e+00             NaN             NaN             NaN             NaN
    4.108696e+01    1.279891e+01    0.000000e+00             NaN             NaN             NaN             NaN
    4.108696e+01    1.206522e+01    0.000000e+00             NaN             NaN             NaN             NaN
    4.108696e+01    1.133152e+01    0.000000e+00             NaN             NaN             NaN             NaN
    4.108696e+01    1.059783e+01    0.000000e+00             NaN             NaN             NaN             NaN
    4.108696e+01    9.864130e+00    0.000000e+00             NaN             NaN             NaN             NaN
    4.108696e+01    9.130435e+00    0.000000e+00             NaN             NaN             NaN             NaN
    3.913044e+01    1.500000e+01    1.200000e+01             NaN             NaN             NaN             NaN
    3.913044e+01    1.421196e+01    1.200000e+01             NaN             NaN             NaN             NaN
    3.913044e+01    1.342391e+01    1.200000e+01             NaN             NaN             NaN             NaN
    3.913044e+01    1.263587e+01    1.200000e+01             NaN             NaN             NaN             NaN
    3.913044e+01    1.184783e+01    1.200000e+01             NaN             NaN             NaN             NaN
    3.913044e+01    1.105978e+01    1.200000e+01             NaN             NaN             NaN             NaN
    3.913044e+01    1.027174e+01    1.200000e+01             NaN             NaN             NaN             NaN
    3.913044e+01    9.483696e+00    1.200000e+01             NaN             NaN             NaN             NaN
    3.913044e+01    8.695652e+00    1.200000e+01             NaN             NaN             NaN             NaN
    3.913044e+01    1.500000e+01    1.000000e+01             NaN             NaN             NaN             NaN
    3.913044e+01    1.421196e+01    1.000000e+01             NaN             NaN             NaN             NaN
    3.913044e+01    1.342391e+01    1.000000e+01             NaN             NaN             NaN             NaN
    3.913044e+01    1.263587e+01    1.000000e+01             NaN             NaN             NaN             NaN
    3.913044e+01    1.184783e+01    1.000000e+01             NaN             NaN             NaN             NaN
    3.913044e+01    1.105978e+01    1.000000e+01             NaN             NaN             NaN             NaN
    3.913044e+01    1.027174e+01    1.000000e+01             NaN             NaN             NaN             NaN
    3.913044e+01    9.483696e+00    1.000000e+01             NaN             NaN             NaN             NaN
    3.913044e+01    8.695652e+00    1.000000e+01             NaN             NaN             NaN             NaN
    3.913044e+01    1.500000e+01    8.000000e+00             NaN             NaN             NaN             NaN
    3.913044e+01    1.421196e+01    8.000000e+00             NaN             NaN             NaN             NaN
    3.913044e+01    1.342391e+01    8.000000e+00             NaN             NaN             NaN             NaN
    3.913044e+01    1.263587e+01    8.000000e+00             NaN             NaN             NaN             NaN
    3.913044e+01    1.184783e+01    8.000000e+00             NaN             NaN             NaN             NaN
    3.913044e+01    1.105978e+01    8.000000e+00             NaN             NaN             NaN             NaN
    3.913044e+01    1.027174e+01    8.000000e+00             NaN             NaN             NaN             NaN
    3.913044e+01    9.483696e+00    8.000000e+00             NaN             NaN             NaN             NaN
    3.913044e+01    8.695652e+00    8.000000e+00             NaN             NaN             NaN             NaN
    3.913044e+01    1.500000e+01    6.000000e+00             NaN             NaN             NaN             NaN
    3.913044e+01    1.421196e+01    6.000000e+00             NaN             NaN             NaN             NaN
    3.913044e+01    1.342391e+01    6.000000e+00             NaN             NaN             NaN             NaN
    3.913044e+01    1.263587e+01    6.000000e+00             NaN             NaN             NaN             NaN
    3.913044e+01    1.184783e+01    6.000000e+00             NaN             NaN             NaN             NaN
    3.913044e+01    1.105978e+01    6.000000e+00             NaN             NaN             NaN             NaN
    3.913044e+01    1.027174e+01    6.000000e+00             NaN             NaN             NaN             NaN
    3.913044e+01    9.483696e+00    6.000000e+00             NaN             NaN             NaN             NaN
    3.913044e+01    8.695652e+00    6.000000e+00             NaN             NaN             NaN             NaN
    3.913044e+01    1.500000e+01    4.000000e+00             NaN             NaN             NaN             NaN
    3.913044e+01    1.421196e+01    4.000000e+00             NaN             NaN             NaN             NaN
    3.913044e+01    1.342391e+01    4.000000e+00             NaN             NaN             NaN             NaN
    3.913044e+01    1.263587e+01    4.000000e+00             NaN             NaN             NaN             NaN
    3.913044e+01    1.184783e+01    4.000000e+00             NaN             NaN             NaN             NaN
    3.913044e+01    1.105978e+01    4.000000e+00             NaN             NaN             NaN             NaN
    3.913044e+01    1.027174e+01    4.000000e+00             NaN             NaN             NaN             NaN
    3.913044e+01    9.483696e+00    4.000000e+00             NaN             NaN             NaN             NaN
    3.913044e+01    8.695652e+00    4.000000e+00             NaN             NaN             NaN             NaN
    3.913044e+01    1.500000e+01    2.000000e+00             NaN             NaN             NaN             NaN
    3.913044e+01    1.421196e+01    2.000000e+00             NaN             NaN             NaN             NaN
    3.913044e+01    1.342391e+01    2.000000e+00             NaN             NaN             NaN             NaN
    3.913044e+01    1.263587e+01    2.000000e+00             NaN             NaN             NaN             NaN
    3.913044e+01    1.184783e+01    2.000000e+00             NaN             NaN             NaN             NaN
    3.913044e+01    1.105978e+01    2.000000e+00             NaN             NaN             NaN             NaN
    3.913044e+01    1.027174e+01    2.000000e+00             NaN             NaN             NaN             NaN
    3.913044e+01    9.483696e+00    2.000000e+00             NaN             NaN             NaN             NaN
    3.913044e+01    8.695652e+00    2.000000e+00             NaN             NaN             NaN             NaN
    3.913044e+01    1.500000e+01    0.000000e+00             NaN             NaN             NaN             NaN
    3.913044e+01    1.421196e+01    0.000000e+00             NaN             NaN             NaN             NaN
    3.913044e+01    1.342391e+01    0.000000e+00             NaN             NaN             NaN             NaN
    3.913044e+01    1.263587e+01    0.000000e+00             NaN             NaN             NaN             NaN
    3.913044e+01    1.184783e+01    0.000000e+00             NaN             NaN             NaN             NaN
    3.913044e+01    1.105978e+01    0.000000e+00             NaN             NaN             NaN             NaN
    3.913044e+01    1.027174e+01    0.000000e+00             NaN             NaN             NaN             NaN
    3.913044e+01    9.483696e+00    0.000000e+00             NaN             NaN             NaN             NaN
    3.913044e+01    8.695652e+00    0.000000e+00             NaN             NaN             NaN             NaN
    3.717391e+01    1.500000e+01    1.200000e+01             NaN             NaN             NaN             NaN
    3.717391e+01    1.415761e+01    1.200000e+01             NaN             NaN             NaN             NaN
    3.717391e+01    1.331522e+01    1.200000e+01             NaN             NaN             NaN             NaN
    3.717391e+01    1.247283e+01    1.200000e+01             NaN             NaN             NaN             NaN
    3.717391e+01    1.163044e+01    1.200000e+01             NaN             NaN             NaN             NaN
    3.717391e+01    1.078804e+01    1.200000e+01             NaN             NaN             NaN             NaN
    3.717391e+01    9.945652e+00    1.200000e+01             NaN             NaN             NaN             NaN
    3.717391e+01    9.103261e+00    1.200000e+01             NaN             NaN             NaN             NaN
    3.717391e+01    8.260870e+00    1.200000e+01             NaN             NaN             NaN             NaN
    3.717391e+01    1.500000e+01    1.000000e+01             NaN             NaN             NaN             NaN
    3.717391e+01    1.415761e+01    1.000000e+01             NaN             NaN             NaN             NaN
    3.717391e+01    1.331522e+01    1.000000e+01             NaN             NaN             NaN             NaN