TITLE="C3D4"
VARIABLES="X""Y""Z""U""V""W""M"
ZONE T="flow-field",N=    2419,E=   11032,ET=TETRAHEDRON,F=FEPOINT
    3.500000e+01    1.000000e+01    7.000000e+00    6.396321e-02   -3.877569e-01    6.357052e-02    3.981054e-01
    3.500000e+01    7.500000e+00    7.000000e+00   -3.133375e-04   -3.703174e-01    4.450156e-02    3.729818e-01
    3.500000e+01    7.500000e+00    0.000000e+00    2.298025e-02   -3.213418e-01    4.789027e-02    3.257025e-01
    3.500000e+01    1.000000e+01    0.000000e+00    9.612502e-02   -3.257439e-01    6.281085e-02    3.453901e-01
    0.000000e+00    0.000000e+00    7.000000e+00    0.000000e+00    0.000000e+00    0.000000e+00    0.000000e+00
    0.000000e+00    0.000000e+00    0.000000e+00    0.000000e+00    0.000000e+00    0.000000e+00    0.000000e+00
    0.000000e+00    1.000000e+01    0.000000e+00    0.000000e+00    0.000000e+00    0.000000e+00    0.000000e+00
    0.000000e+00    1.000000e+01    7.000000e+00    0.000000e+00    0.000000e+00    0.000000e+00    0.000000e+00
    3.500000e+01    9.166667e+00    7.000000e+00    3.894583e-02   -3.767652e-01    5.773131e-02    3.831471e-01
    3.500000e+01    8.333333e+00    7.000000e+00    1.931035e-02   -3.715303e-01    5.120977e-02    3.755397e-01
    3.500000e+01    7.500000e+00    6.000000e+00    2.730017e-03   -3.617420e-01    4.445104e-02    3.644730e-01
    3.500000e+01    7.500000e+00    5.000000e+00    6.205073e-03   -3.533058e-01    4.496493e-02    3.562097e-01
    3.500000e+01    7.500000e+00    4.000000e+00    9.604957e-03   -3.455304e-01    4.573552e-02    3.486764e-01
    3.500000e+01    7.500000e+00    3.000000e+00    1.279211e-02   -3.386905e-01    4.651677e-02    3.421092e-01
    3.500000e+01    7.500000e+00    2.000000e+00    1.597297e-02   -3.326198e-01    4.719652e-02    3.363310e-01
    3.500000e+01    7.500000e+00    1.000000e+00    1.936005e-02   -3.269993e-01    4.763893e-02    3.310179e-01
    3.500000e+01    8.333333e+00    0.000000e+00    4.242254e-02   -3.220857e-01    5.348706e-02    3.292412e-01
    3.500000e+01    9.166667e+00    0.000000e+00    6.505093e-02   -3.236774e-01    6.006594e-02    3.355690e-01
    3.500000e+01    1.000000e+01    1.000000e+00    7.828806e-02   -3.287355e-01    6.441071e-02    3.440128e-01
    3.500000e+01    1.000000e+01    2.000000e+00    7.145106e-02   -3.329944e-01    6.325968e-02    3.463990e-01
    3.500000e+01    1.000000e+01    3.000000e+00    6.792143e-02   -3.387866e-01    6.284447e-02    3.511967e-01
    3.500000e+01    1.000000e+01    4.000000e+00    6.547846e-02   -3.456825e-01    6.284981e-02    3.573988e-01
    3.500000e+01    1.000000e+01    5.000000e+00    6.421560e-02   -3.540785e-01    6.348823e-02    3.654121e-01
    3.500000e+01    1.000000e+01    6.000000e+00    6.399329e-02   -3.651504e-01    6.481182e-02    3.763383e-01
    3.402778e+01    7.291667e+00    7.000000e+00   -4.963397e-03   -3.455543e-01    4.108848e-02    3.480240e-01
    3.305556e+01    7.083333e+00    7.000000e+00   -8.636766e-03   -3.206217e-01    3.833528e-02    3.230209e-01
    3.208333e+01    6.875000e+00    7.000000e+00   -1.151798e-02   -2.967332e-01    3.575499e-02    2.991015e-01
    3.111111e+01    6.666667e+00    7.000000e+00   -1.396478e-02   -2.741467e-01    3.314721e-02    2.764963e-01
    3.013889e+01    6.458333e+00    7.000000e+00   -1.600802e-02   -2.528666e-01    3.061726e-02    2.552159e-01
    2.916667e+01    6.250000e+00    7.000000e+00   -1.770165e-02   -2.327955e-01    2.814822e-02    2.351583e-01
    2.819444e+01    6.041667e+00    7.000000e+00   -1.907821e-02   -2.139986e-01    2.587609e-02    2.163999e-01
    2.722222e+01    5.833333e+00    7.000000e+00   -2.007191e-02   -1.961823e-01    2.364593e-02    1.986190e-01
    2.625000e+01    5.625000e+00    7.000000e+00   -2.095405e-02   -1.795017e-01    2.154383e-02    1.820002e-01
    2.527778e+01    5.416667e+00    7.000000e+00   -2.168374e-02   -1.638692e-01    1.960749e-02    1.664564e-01
    2.430556e+01    5.208333e+00    7.000000e+00   -2.209598e-02   -1.492397e-01    1.783914e-02    1.519176e-01
    2.333333e+01    5.000000e+00    7.000000e+00   -2.240993e-02   -1.354840e-01    1.609174e-02    1.382644e-01
    2.236111e+01    4.791667e+00    7.000000e+00   -2.250638e-02   -1.226078e-01    1.453325e-02    1.255007e-01
    2.138889e+01    4.583333e+00    7.000000e+00   -2.257534e-02   -1.106461e-01    1.301829e-02    1.136736e-01
    2.041667e+01    4.375000e+00    7.000000e+00   -2.241920e-02   -9.963767e-02    1.151128e-02    1.027755e-01
    1.944444e+01    4.166667e+00    7.000000e+00   -2.216992e-02   -8.922380e-02    1.016974e-02    9.249765e-02
    1.847222e+01    3.958333e+00    7.000000e+00   -2.173596e-02   -7.955074e-02    8.959925e-03    8.295211e-02
    1.750000e+01    3.750000e+00    7.000000e+00   -2.111130e-02   -7.062225e-02    7.889905e-03    7.413123e-02
    1.652778e+01    3.541667e+00    7.000000e+00   -2.056971e-02   -6.237849e-02    6.836292e-03    6.603729e-02
    1.555556e+01    3.333333e+00    7.000000e+00   -1.977486e-02   -5.472122e-02    5.896618e-03    5.848271e-02
    1.458333e+01    3.125000e+00    7.000000e+00   -1.897179e-02   -4.769084e-02    5.060679e-03    5.157476e-02
    1.361111e+01    2.916667e+00    7.000000e+00   -1.801516e-02   -4.130098e-02    4.328493e-03    4.526646e-02
    1.263889e+01    2.708333e+00    7.000000e+00   -1.708287e-02   -3.542557e-02    3.662850e-03    3.949952e-02
    1.166667e+01    2.500000e+00    7.000000e+00   -1.602313e-02   -3.007307e-02    3.048717e-03    3.421147e-02
    1.069444e+01    2.291667e+00    7.000000e+00   -1.488302e-02   -2.523138e-02    2.535694e-03    2.940334e-02
    9.722222e+00    2.083333e+00    7.000000e+00   -1.367392e-02   -2.087038e-02    2.120139e-03    2.504084e-02
    8.750000e+00    1.875000e+00    7.000000e+00   -1.239372e-02   -1.700159e-02    1.766678e-03    2.111349e-02
    7.777778e+00    1.666667e+00    7.000000e+00   -1.106342e-02   -1.360964e-02    1.477380e-03    1.760126e-02
    6.805555e+00    1.458333e+00    7.000000e+00   -9.669684e-03   -1.062475e-02    1.272341e-03    1.442245e-02
    5.833333e+00    1.250000e+00    7.000000e+00   -8.218984e-03   -8.107449e-03    1.123929e-03    1.159938e-02
    4.861111e+00    1.041667e+00    7.000000e+00   -6.768806e-03   -5.993230e-03    1.018520e-03    9.097962e-03
    3.888889e+00    8.333333e-01    7.000000e+00   -5.331786e-03   -4.272601e-03    9.587828e-04    6.899444e-03
    2.916667e+00    6.250000e-01    7.000000e+00   -3.918381e-03   -2.910045e-03    9.129851e-04    4.965442e-03
    1.944444e+00    4.166667e-01    7.000000e+00   -2.545103e-03   -1.878165e-03    8.357073e-04    3.271614e-03
    9.722222e-01    2.083333e-01    7.000000e+00   -1.243906e-03   -1.096017e-03    6.380347e-04    1.776413e-03
    0.000000e+00    0.000000e+00    6.000000e+00    0.000000e+00    0.000000e+00    0.000000e+00    0.000000e+00
    0.000000e+00    0.000000e+00    5.000000e+00    0.000000e+00    0.000000e+00    0.000000e+00    0.000000e+00
    0.000000e+00    0.000000e+00    4.000000e+00    0.000000e+00    0.000000e+00    0.000000e+00    0.000000e+00
    0.000000e+00    0.000000e+00    3.000000e+00    0.000000e+00    0.000000e+00    0.000000e+00    0.000000e+00
    0.000000e+00    0.000000e+00    2.000000e+00    0.000000e+00    0.000000e+00    0.000000e+00    0.000000e+00
    0.000000e+00    0.000000e+00    1.000000e+00    0.000000e+00    0.000000e+00    0.000000e+00    0.000000e+00
    9.722222e-01    2.083333e-01    0.000000e+00   -1.165946e-03   -5.246842e-04   -1.002579e-03    1.624773e-03
    1.944444e+00    4.166667e-01    0.000000e+00   -2.215678e-03   -9.161539e-04   -1.487076e-03    2.821340e-03
    2.916667e+00    6.250000e-01    0.000000e+00   -3.297967e-03   -1.489957e-03   -1.813993e-03    4.048102e-03
    3.888889e+00    8.333333e-01    0.000000e+00   -4.403295e-03   -2.366461e-03   -2.045981e-03    5.401406e-03
    4.861111e+00    1.041667e+00    0.000000e+00   -5.549526e-03   -3.612994e-03   -2.181818e-03    6.972180e-03
    5.833333e+00    1.250000e+00    0.000000e+00   -6.599389e-03   -5.220193e-03   -2.215504e-03    8.701195e-03
    6.805555e+00    1.458333e+00    0.000000e+00   -7.600564e-03   -7.217791e-03   -2.142873e-03    1.069846e-02
    7.777778e+00    1.666667e+00    0.000000e+00   -8.555489e-03   -9.668587e-03   -1.979764e-03    1.306130e-02
    8.750000e+00    1.875000e+00    0.000000e+00   -9.419580e-03   -1.247379e-02   -1.762518e-03    1.572992e-02
    9.722222e+00    2.083333e+00    0.000000e+00   -1.015271e-02   -1.575011e-02   -1.453296e-03    1.879510e-02
    1.069444e+01    2.291667e+00    0.000000e+00   -1.087503e-02   -1.945751e-02   -1.083398e-03    2.231669e-02
    1.166667e+01    2.500000e+00    0.000000e+00   -1.155198e-02   -2.360012e-02   -6.216322e-04    2.628308e-02
    1.263889e+01    2.708333e+00    0.000000e+00   -1.202804e-02   -2.824637e-02   -8.944072e-05    3.070080e-02
    1.361111e+01    2.916667e+00    0.000000e+00   -1.242531e-02   -3.339739e-02    5.851051e-04    3.563869e-02
    1.458333e+01    3.125000e+00    0.000000e+00   -1.273915e-02   -3.908704e-02    1.310517e-03    4.113150e-02
    1.555556e+01    3.333333e+00    0.000000e+00   -1.303916e-02   -4.528259e-02    2.116305e-03    4.717003e-02
    1.652778e+01    3.541667e+00    0.000000e+00   -1.315745e-02   -5.207550e-02    2.987526e-03    5.379500e-02
    1.750000e+01    3.750000e+00    0.000000e+00   -1.315531e-02   -5.935459e-02    3.959789e-03    6.092380e-02
    1.847222e+01    3.958333e+00    0.000000e+00   -1.297314e-02   -6.732684e-02    5.097922e-03    6.875460e-02
    1.944444e+01    4.166667e+00    0.000000e+00   -1.274160e-02   -7.595250e-02    6.257665e-03    7.726765e-02
    2.041667e+01    4.375000e+00    0.000000e+00   -1.233546e-02   -8.517709e-02    7.553823e-03    8.639653e-02
    2.138889e+01    4.583333e+00    0.000000e+00   -1.175880e-02   -9.511315e-02    8.976646e-03    9.625675e-02
    2.236111e+01    4.791667e+00    0.000000e+00   -1.090740e-02   -1.057589e-01    1.058748e-02    1.068457e-01
    2.333333e+01    5.000000e+00    0.000000e+00   -9.939132e-03   -1.171640e-01    1.225665e-02    1.182219e-01
    2.430556e+01    5.208333e+00    0.000000e+00   -8.751073e-03   -1.293187e-01    1.403611e-02    1.303722e-01
    2.527778e+01    5.416667e+00    0.000000e+00   -7.428221e-03   -1.422053e-01    1.595676e-02    1.432904e-01
    2.625000e+01    5.625000e+00    0.000000e+00   -5.779131e-03   -1.560096e-01    1.800216e-02    1.571511e-01
    2.722222e+01    5.833333e+00    0.000000e+00   -3.938797e-03   -1.705753e-01    2.025996e-02    1.718194e-01
    2.819444e+01    6.041667e+00    0.000000e+00   -1.823724e-03   -1.860517e-01    2.264873e-02    1.874341e-01
    2.916667e+01    6.250000e+00    0.000000e+00    5.798190e-04   -2.024606e-01    2.521229e-02    2.040252e-01
    3.013889e+01    6.458333e+00    0.000000e+00    3.290327e-03   -2.198266e-01    2.798511e-02    2.216252e-01
    3.111111e+01    6.666667e+00    0.000000e+00    6.434082e-03   -2.379305e-01    3.099375e-02    2.400269e-01
    3.208333e+01    6.875000e+00    0.000000e+00    1.002860e-02   -2.570501e-01    3.443963e-02    2.595408e-01
    3.305556e+01    7.083333e+00    0.000000e+00    1.393086e-02   -2.773086e-01    3.839147e-02    2.802999e-01
    3.402778e+01    7.291667e+00    0.000000e+00    1.819992e-02   -2.988240e-01    4.287882e-02    3.024328e-01
    0.000000e+00    1.000000e+00    0.000000e+00    0.000000e+00    0.000000e+00    0.000000e+00    0.000000e+00
    0.000000e+00    2.000000e+00    0.000000e+00    0.000000e+00    0.000000e+00    0.000000e+00    0.000000e+00
    0.000000e+00    3.000000e+00    0.000000e+00    0.000000e+00    0.000000e+00    0.000000e+00    0.000000e+00
    0.000000e+00    4.000000e+00    0.000000e+00    0.000000e+00    0.000000e+00    0.000000e+00    0.000000e+00
    0.000000e+00    5.000000e+00    0.000000e+00    0.000000e+00    0.000000e+00    0.000000e+00    0.000000e+00
    0.000000e+00    6.000000e+00    0.000000e+00    0.000000e+00    0.000000e+00    0.000000e+00    0.000000e+00
    0.000000e+00    7.000000e+00    0.000000e+00    0.000000e+00    0.000000e+00    0.000000e+00    0.000000e+00
    0.000000e+00    8.000000e+00    0.000000e+00    0.000000e+00    0.000000e+00    0.000000e+00    0.000000e+00
    0.000000e+00    9.000000e+00    0.000000e+00    0.000000e+00    0.000000e+00    0.000000e+00    0.000000e+00
    1.000000e+00    1.000000e+01    0.000000e+00    2.104423e-03   -8.126190e-04    1.394473e-03    2.652075e-03
    2.000000e+00    1.000000e+01    0.000000e+00    4.093827e-03   -1.194536e-03    2.106697e-03    4.756523e-03
    3.000000e+00    1.000000e+01    0.000000e+00    5.969769e-03   -1.894575e-03    2.725103e-03    6.830355e-03
    4.000000e+00    1.000000e+01    0.000000e+00    7.964549e-03   -2.896179e-03    3.333649e-03    9.106871e-03
    5.000000e+00    1.000000e+01    0.000000e+00    9.925010e-03   -4.329125e-03    3.971307e-03    1.153336e-02
    6.000000e+00    1.000000e+01    0.000000e+00    1.198083e-02   -6.097410e-03    4.647455e-03    1.422384e-02
    7.000000e+00    1.000000e+01    0.000000e+00    1.404805e-02   -8.270271e-03    5.376639e-03    1.716547e-02
    8.000000e+00    1.000000e+01    0.000000e+00    1.611647e-02   -1.090226e-02    6.215699e-03    2.042632e-02
    9.000000e+00    1.000000e+01    0.000000e+00    1.827286e-02   -1.394327e-02    7.047279e-03    2.404114e-02
    1.000000e+01    1.000000e+01    0.000000e+00    2.045495e-02   -1.743445e-02    8.040297e-03    2.805373e-02
    1.100000e+01    1.000000e+01    0.000000e+00    2.267897e-02   -2.138875e-02    9.078962e-03    3.246909e-02
    1.200000e+01    1.000000e+01    0.000000e+00    2.484732e-02   -2.584116e-02    1.020242e-02    3.727256e-02
    1.300000e+01    1.000000e+01    0.000000e+00    2.711050e-02   -3.075082e-02    1.138434e-02    4.254639e-02
    1.400000e+01    1.000000e+01    0.000000e+00    2.946507e-02   -3.628066e-02    1.263001e-02    4.841481e-02
    1.500000e+01    1.000000e+01    0.000000e+00    3.176223e-02   -4.238014e-02    1.399373e-02    5.477901e-02
    1.600000e+01    1.000000e+01    0.000000e+00    3.418913e-02   -4.897735e-02    1.543903e-02    6.169312e-02
    1.700000e+01    1.000000e+01    0.000000e+00    3.660085e-02   -5.624428e-02    1.701629e-02    6.922857e-02
    1.800000e+01    1.000000e+01    0.000000e+00    3.898349e-02   -6.405594e-02    1.862338e-02    7.726387e-02
    1.900000e+01    1.000000e+01    0.000000e+00    4.150594e-02   -7.257835e-02    2.036822e-02    8.605361e-02
    2.000000e+01    1.000000e+01    0.000000e+00    4.391800e-02   -8.178054e-02    2.225161e-02    9.545670e-02
    2.100000e+01    1.000000e+01    0.000000e+00    4.642601e-02   -9.175019e-02    2.418317e-02    1.056328e-01
    2.200000e+01    1.000000e+01    0.000000e+00    4.887457e-02   -1.024181e-01    2.624658e-02    1.164778e-01
    2.300000e+01    1.000000e+01    0.000000e+00    5.154596e-02   -1.137878e-01    2.837661e-02    1.281010e-01
    2.400000e+01    1.000000e+01    0.000000e+00    5.402384e-02   -1.261060e-01    3.076587e-02    1.405982e-01
    2.500000e+01    1.000000e+01    0.000000e+00    5.645972e-02   -1.391316e-01    3.303076e-02    1.537411e-01
    2.600000e+01    1.000000e+01    0.000000e+00    5.909499e-02   -1.531005e-01    3.554254e-02    1.679144e-01
    2.700000e+01    1.000000e+01    0.000000e+00    6.163106e-02   -1.678678e-01    3.812342e-02    1.828425e-01
    2.800000e+01    1.000000e+01    0.000000e+00    6.425366e-02   -1.836852e-01    4.092818e-02    1.988565e-01
    2.900000e+01    1.000000e+01    0.000000e+00    6.670291e-02   -2.004232e-01    4.373562e-02    2.157117e-01
    3.000000e+01    1.000000e+01    0.000000e+00    6.908138e-02   -2.180077e-01    4.670605e-02    2.334118e-01
    3.100000e+01    1.000000e+01    0.000000e+00    7.169617e-02   -2.365838e-01    4.975311e-02    2.521659e-01
    3.200000e+01    1.000000e+01    0.000000e+00    7.482414e-02   -2.562349e-01    5.296313e-02    2.721398e-01
    3.300000e+01    1.000000e+01    0.000000e+00    7.817934e-02   -2.765508e-01    5.613098e-02    2.928192e-01
    3.400000e+01    1.000000e+01    0.000000e+00    8.305308e-02   -2.981399e-01    5.982066e-02    3.152201e-01
    1.000000e+00    1.000000e+01    7.000000e+00    1.614340e-03   -7.166912e-04   -8.534961e-04    1.961682e-03
    2.000000e+00    1.000000e+01    7.000000e+00    3.098810e-03   -1.589805e-03   -8.364944e-04    3.581875e-03
    3.000000e+00    1.000000e+01    7.000000e+00    4.561809e-03   -2.741585e-03   -6.031624e-04    5.356323e-03
    4.000000e+00    1.000000e+01    7.000000e+00    6.121946e-03   -4.227236e-03   -2.185438e-04    7.442816e-03
    5.000000e+00    1.000000e+01    7.000000e+00    7.685283e-03   -6.116717e-03    2.962004e-04    9.826776e-03
    6.000000e+00    1.000000e+01    7.000000e+00    9.292578e-03   -8.425316e-03    9.041923e-04    1.257599e-02
    7.000000e+00    1.000000e+01    7.000000e+00    1.094338e-02   -1.114743e-02    1.575209e-03    1.570045e-02
    8.000000e+00    1.000000e+01    7.000000e+00    1.261013e-02   -1.433405e-02    2.334916e-03    1.923362e-02
    9.000000e+00    1.000000e+01    7.000000e+00    1.426914e-02   -1.797408e-02    3.192312e-03    2.317039e-02
    1.000000e+01    1.000000e+01    7.000000e+00    1.599922e-02   -2.213117e-02    4.108502e-03    2.761600e-02
    1.100000e+01    1.000000e+01    7.000000e+00    1.777256e-02   -2.672539e-02    5.076536e-03    3.249433e-02
    1.200000e+01    1.000000e+01    7.000000e+00    1.953763e-02   -3.186511e-02    6.125895e-03    3.787652e-02
    1.300000e+01    1.000000e+01    7.000000e+00    2.128604e-02   -3.754650e-02    7.283164e-03    4.377076e-02
    1.400000e+01    1.000000e+01    7.000000e+00    2.315125e-02   -4.382692e-02    8.524787e-03    5.029365e-02
    1.500000e+01    1.000000e+01    7.000000e+00    2.506902e-02   -5.070752e-02    9.832972e-03    5.741424e-02
    1.600000e+01    1.000000e+01    7.000000e+00    2.692545e-02   -5.822257e-02    1.125613e-02    6.512716e-02
    1.700000e+01    1.000000e+01    7.000000e+00    2.878399e-02   -6.633599e-02    1.276355e-02    7.342949e-02
    1.800000e+01    1.000000e+01    7.000000e+00    3.073211e-02   -7.522222e-02    1.435873e-02    8.251677e-02
    1.900000e+01    1.000000e+01    7.000000e+00    3.269793e-02   -8.473400e-02    1.604865e-02    9.223104e-02
    2.000000e+01    1.000000e+01    7.000000e+00    3.465452e-02   -9.510443e-02    1.788884e-02    1.027901e-01
    2.100000e+01    1.000000e+01    7.000000e+00    3.653759e-02   -1.062243e-01    1.984413e-02    1.140719e-01
    2.200000e+01    1.000000e+01    7.000000e+00    3.850803e-02   -1.182424e-01    2.183603e-02    1.262574e-01
    2.300000e+01    1.000000e+01    7.000000e+00    4.056959e-02   -1.310820e-01    2.406124e-02    1.393102e-01
    2.400000e+01    1.000000e+01    7.000000e+00    4.248304e-02   -1.448940e-01    2.641431e-02    1.532867e-01
    2.500000e+01    1.000000e+01    7.000000e+00    4.449898e-02   -1.597281e-01    2.885714e-02    1.683032e-01
    2.600000e+01    1.000000e+01    7.000000e+00    4.629681e-02   -1.755796e-01    3.154878e-02    1.843012e-01
    2.700000e+01    1.000000e+01    7.000000e+00    4.825166e-02   -1.924127e-01    3.427776e-02    2.013103e-01
    2.800000e+01    1.000000e+01    7.000000e+00    5.020374e-02   -2.104419e-01    3.729568e-02    2.195386e-01
    2.900000e+01    1.000000e+01    7.000000e+00    5.201534e-02   -2.296943e-01    4.049448e-02    2.389662e-01
    3.000000e+01    1.000000e+01    7.000000e+00    5.371395e-02   -2.502230e-01    4.390418e-02    2.596619e-01
    3.100000e+01    1.000000e+01    7.000000e+00    5.548256e-02   -2.720436e-01    4.766882e-02    2.817062e-01
    3.200000e+01    1.000000e+01    7.000000e+00    5.718356e-02   -2.954874e-01    5.169118e-02    3.053764e-01
    3.300000e+01    1.000000e+01    7.000000e+00    5.880239e-02   -3.200371e-01    5.616946e-02    3.302067e-01
    3.400000e+01    1.000000e+01    7.000000e+00    6.115039e-02   -3.480335e-01    6.161218e-02    3.586959e-01
    0.000000e+00    1.000000e+01    1.000000e+00    0.000000e+00    0.000000e+00    0.000000e+00    0.000000e+00
    0.000000e+00    1.000000e+01    2.000000e+00    0.000000e+00    0.000000e+00    0.000000e+00    0.000000e+00
    0.000000e+00    1.000000e+01    3.000000e+00    0.000000e+00    0.000000e+00    0.000000e+00    0.000000e+00
    0.000000e+00    1.000000e+01    4.000000e+00    0.000000e+00    0.000000e+00    0.000000e+00    0.000000e+00
    0.000000e+00    1.000000e+01    5.000000e+00    0.000000e+00    0.000000e+00    0.000000e+00    0.000000e+00
    0.000000e+00    1.000000e+01    6.000000e+00    0.000000e+00    0.000000e+00    0.000000e+00    0.000000e+00
    0.000000e+00    9.000000e+00    7.000000e+00    0.000000e+00    0.000000e+00    0.000000e+00    0.000000e+00
    0.000000e+00    8.000000e+00    7.000000e+00    0.000000e+00    0.000000e+00    0.000000e+00    0.000000e+00
    0.000000e+00    7.000000e+00    7.000000e+00    0.000000e+00    0.000000e+00    0.000000e+00    0.000000e+00
    0.000000e+00    6.000000e+00    7.000000e+00    0.000000e+00    0.000000e+00    0.000000e+00    0.000000e+00
    0.000000e+00    5.000000e+00    7.000000e+00    0.000000e+00    0.000000e+00    0.000000e+00    0.000000e+00
    0.000000e+00    4.000000e+00    7.000000e+00    0.000000e+00    0.000000e+00    0.000000e+00    0.000000e+00
    0.000000e+00    3.000000e+00    7.000000e+00    0.000000e+00    0.000000e+00    0.000000e+00    0.000000e+00
    0.000000e+00    2.000000e+00    7.000000e+00    0.000000e+00    0.000000e+00    0.000000e+00    0.000000e+00
    0.000000e+00    1.000000e+00    7.000000e+00    0.000000e+00    0.000000e+00    0.000000e+00    0.000000e+00
    3.500000e+01    9.166667e+00    6.000000e+00    4.212747e-02   -3.631561e-01    5.616895e-02    3.698811e-01
    3.500000e+01    8.333333e+00    6.000000e+00    2.229890e-02   -3.620553e-01    5.036183e-02    3.662207e-01
    3.500000e+01    9.166667e+00    5.000000e+00    4.410203e-02   -3.533816e-01    5.626559e-02    3.605404e-01
    3.500000e+01    8.333333e+00    5.000000e+00    2.527581e-02   -3.532933e-01    5.068417e-02    3.578043e-01
    3.500000e+01    9.166667e+00    4.000000e+00    4.658156e-02   -3.454209e-01    5.663987e-02    3.531197e-01
    3.500000e+01    8.333333e+00    4.000000e+00    2.816699e-02   -3.453563e-01    5.124330e-02    3.502717e-01
    3.500000e+01    9.166667e+00    3.000000e+00    4.935924e-02   -3.386108e-01    5.717446e-02    3.469330e-01
    3.500000e+01    8.333333e+00    3.000000e+00    3.110406e-02   -3.385647e-01    5.182249e-02    3.439172e-01
    3.500000e+01    9.166667e+00    2.000000e+00    5.271408e-02   -3.327744e-01    5.779120e-02    3.418441e-01
    3.500000e+01    8.333333e+00    2.000000e+00    3.439417e-02   -3.326011e-01    5.242862e-02    3.384600e-01
    3.500000e+01    9.166667e+00    1.000000e+00    5.735831e-02   -3.279380e-01    5.899086e-02    3.381024e-01
    3.500000e+01    8.333333e+00    1.000000e+00    3.794869e-02   -3.271594e-01    5.293854e-02    3.335804e-01
    3.402778e+01    7.291667e+00    6.000000e+00   -1.915730e-03   -3.381431e-01    4.087905e-02    3.406105e-01
    3.305556e+01    7.083333e+00    6.000000e+00   -5.742028e-03   -3.144320e-01    3.793113e-02    3.167637e-01
    3.208333e+01    6.875000e+00    6.000000e+00   -8.748757e-03   -2.914589e-01    3.525495e-02    2.937137e-01
    3.111111e+01    6.666667e+00    6.000000e+00   -1.136715e-02   -2.695582e-01    3.261349e-02    2.717618e-01
    3.013889e+01    6.458333e+00    6.000000e+00   -1.354932e-02   -2.488679e-01    3.003910e-02    2.510402e-01
    2.916667e+01    6.250000e+00    6.000000e+00   -1.540794e-02   -2.292969e-01    2.751234e-02    2.314550e-01
    2.819444e+01    6.041667e+00    6.000000e+00   -1.689682e-02   -2.108962e-01    2.522722e-02    2.130707e-01
    2.722222e+01    5.833333e+00    6.000000e+00   -1.812759e-02   -1.932916e-01    2.290072e-02    1.954858e-01
    2.625000e+01    5.625000e+00    6.000000e+00   -1.901844e-02   -1.769825e-01    2.090072e-02    1.792243e-01
    2.527778e+01    5.416667e+00    6.000000e+00   -1.998252e-02   -1.615609e-01    1.894742e-02    1.638909e-01
    2.430556e+01    5.208333e+00    6.000000e+00   -2.056233e-02   -1.471534e-01    1.709855e-02    1.495637e-01
    2.333333e+01    5.000000e+00    6.000000e+00   -2.095085e-02   -1.335819e-01    1.534643e-02    1.360829e-01
    2.236111e+01    4.791667e+00    6.000000e+00   -2.113717e-02   -1.209455e-01    1.381039e-02    1.235529e-01
    2.138889e+01    4.583333e+00    6.000000e+00   -2.110003e-02   -1.092195e-01    1.239716e-02    1.119276e-01
    2.041667e+01    4.375000e+00    6.000000e+00   -2.110065e-02   -9.827930e-02    1.086186e-02    1.011041e-01
    1.944444e+01    4.166667e+00    6.000000e+00   -2.103239e-02   -8.792785e-02    9.512336e-03    9.090739e-02
    1.847222e+01    3.958333e+00    6.000000e+00   -2.063674e-02   -7.839803e-02    8.319627e-03    8.149443e-02
    1.750000e+01    3.750000e+00    6.000000e+00   -2.016430e-02   -6.959346e-02    7.223860e-03    7.281506e-02
    1.652778e+01    3.541667e+00    6.000000e+00   -1.962908e-02   -6.146985e-02    6.232370e-03    6.482813e-02
    1.555556e+01    3.333333e+00    6.000000e+00   -1.900908e-02   -5.387822e-02    5.238879e-03    5.737293e-02
    1.458333e+01    3.125000e+00    6.000000e+00   -1.817655e-02   -4.696906e-02    4.461877e-03    5.056073e-02
    1.361111e+01    2.916667e+00    6.000000e+00   -1.732474e-02   -4.064609e-02    3.702064e-03    4.433910e-02
    1.263889e+01    2.708333e+00    6.000000e+00   -1.642400e-02   -3.490347e-02    3.084856e-03    3.869776e-02
    1.166667e+01    2.500000e+00    6.000000e+00   -1.542551e-02   -2.960702e-02    2.460449e-03    3.347501e-02
    1.069444e+01    2.291667e+00    6.000000e+00   -1.437072e-02   -2.482765e-02    1.956237e-03    2.875338e-02
    9.722222e+00    2.083333e+00    6.000000e+00   -1.322631e-02   -2.054933e-02    1.549098e-03    2.448694e-02
    8.750000e+00    1.875000e+00    6.000000e+00   -1.199519e-02   -1.675006e-02    1.213453e-03    2.063787e-02
    7.777778e+00    1.666667e+00    6.000000e+00   -1.074866e-02   -1.343070e-02    9.210143e-04    1.722689e-02
    6.805555e+00    1.458333e+00    6.000000e+00   -9.397428e-03   -1.051127e-02    7.326951e-04    1.411862e-02
    5.833333e+00    1.250000e+00    6.000000e+00   -8.003488e-03   -8.049547e-03    6.031465e-04    1.136727e-02
    4.861111e+00    1.041667e+00    6.000000e+00   -6.634440e-03   -5.957790e-03    5.157362e-04    8.931799e-03
    3.888889e+00    8.333333e-01    6.000000e+00   -5.236822e-03   -4.267142e-03    4.783850e-04    6.772124e-03
    2.916667e+00    6.250000e-01    6.000000e+00   -3.818988e-03   -2.946825e-03    4.580742e-04    4.845439e-03
    1.944444e+00    4.166667e-01    6.000000e+00   -2.452158e-03   -1.940619e-03    4.064966e-04    3.153462e-03
    9.722222e-01    2.083333e-01    6.000000e+00   -1.162061e-03   -1.128146e-03    2.650820e-04    1.641148e-03
    3.402778e+01    7.291667e+00    5.000000e+00    1.568908e-03   -3.305440e-01    4.110225e-02    3.330934e-01
    3.305556e+01    7.083333e+00    5.000000e+00   -2.320832e-03   -3.078005e-01    3.794633e-02    3.101394e-01
    3.208333e+01    6.875000e+00    5.000000e+00   -5.637441e-03   -2.858254e-01    3.492861e-02    2.880068e-01
    3.111111e+01    6.666667e+00    5.000000e+00   -8.325243e-03   -2.646208e-01    3.225333e-02    2.667091e-01
    3.013889e+01    6.458333e+00    5.000000e+00   -1.061571e-02   -2.446221e-01    2.963053e-02    2.466386e-01
    2.916667e+01    6.250000e+00    5.000000e+00   -1.265803e-02   -2.253918e-01    2.694459e-02    2.273493e-01
    2.819444e+01    6.041667e+00    5.000000e+00   -1.431240e-02   -2.072930e-01    2.447937e-02    2.092235e-01
    2.722222e+01    5.833333e+00    5.000000e+00   -1.572614e-02   -1.900454e-01    2.233447e-02    1.919985e-01
    2.625000e+01    5.625000e+00    5.000000e+00   -1.688004e-02   -1.739375e-01    2.019472e-02    1.759176e-01
    2.527778e+01    5.416667e+00    5.000000e+00   -1.769802e-02   -1.590586e-01    1.840370e-02    1.610948e-01
    2.430556e+01    5.208333e+00    5.000000e+00   -1.851118e-02   -1.447671e-01    1.644944e-02    1.468699e-01
    2.333333e+01    5.000000e+00    5.000000e+00   -1.906029e-02   -1.314418e-01    1.476209e-02    1.336344e-01
    2.236111e+01    4.791667e+00    5.000000e+00   -1.937860e-02   -1.190059e-01    1.316459e-02    1.212899e-01
    2.138889e+01    4.583333e+00    5.000000e+00   -1.952603e-02   -1.074235e-01    1.159148e-02    1.097972e-01
    2.041667e+01    4.375000e+00    5.000000e+00   -1.962485e-02   -9.653625e-02    1.022579e-02    9.904014e-02
    1.944444e+01    4.166667e+00    5.000000e+00   -1.948077e-02   -8.645601e-02    8.912539e-03    8.907062e-02
    1.847222e+01    3.958333e+00    5.000000e+00   -1.932175e-02   -7.702473e-02    7.672539e-03    7.978099e-02
    1.750000e+01    3.750000e+00    5.000000e+00   -1.895175e-02   -6.833851e-02    6.561999e-03    7.122065e-02
    1.652778e+01    3.541667e+00    5.000000e+00   -1.846734e-02   -6.039125e-02    5.619310e-03    6.340128e-02
    1.555556e+01    3.333333e+00    5.000000e+00   -1.791227e-02   -5.289208e-02    4.644901e-03    5.603567e-02
    1.458333e+01    3.125000e+00    5.000000e+00   -1.723811e-02   -4.608528e-02    3.876609e-03    4.935619e-02
    1.361111e+01    2.916667e+00    5.000000e+00   -1.647866e-02   -3.982246e-02    3.105846e-03    4.320903e-02
    1.263889e+01    2.708333e+00    5.000000e+00   -1.564750e-02   -3.419054e-02    2.417072e-03    3.767864e-02
    1.166667e+01    2.500000e+00    5.000000e+00   -1.471199e-02   -2.893371e-02    1.868639e-03    3.251298e-02
    1.069444e+01    2.291667e+00    5.000000e+00   -1.372459e-02   -2.424503e-02    1.391508e-03    2.789484e-02