TITLE="S4R"
VARIABLES="X""Y""Z""DispX""DispY""DispZ""Mdisp""thetaX""thetaY""thetaZ""Mtheta"
ZONE T="flow-field",N=     630,E=     580,ET=QUADRILATERAL,F=FEPOINT
    2.500000e+01     5.000000e+00     2.000000e+01     2.235603e-01    -2.058556e+01    -2.030332e+00     2.068665e+01     3.549589e-01    -1.774797e-01    -1.218536e+00     1.281533e+00
    1.500000e+01     1.000000e+01     2.000000e+01     5.989973e+00    -8.995497e+00     2.992859e-03     1.080735e+01     1.617216e-01     7.696426e-02    -1.038642e+00     1.053971e+00
    1.500000e+01     1.000000e+01     0.000000e+00     3.683451e+00    -5.502115e+00     1.089084e-02     6.621269e+00     1.884405e-01     1.001008e-01    -7.075998e-01     7.390720e-01
    2.500000e+01     5.000000e+00     0.000000e+00    -3.367143e-01    -1.355155e+01    -2.024407e+00     1.370606e+01     1.862313e-01    -9.311566e-02    -8.631538e-01     8.879116e-01
    0.000000e+00     0.000000e+00     2.000000e+01     0.000000e+00     0.000000e+00     0.000000e+00     0.000000e+00     0.000000e+00     0.000000e+00     0.000000e+00     0.000000e+00
    0.000000e+00     0.000000e+00     0.000000e+00     0.000000e+00     0.000000e+00     0.000000e+00     0.000000e+00     0.000000e+00     0.000000e+00     0.000000e+00     0.000000e+00
    2.409091e+01     5.454546e+00     2.000000e+01     8.036661e-01    -1.941422e+01    -1.840563e+00     1.951783e+01     3.320054e-01    -1.660040e-01    -1.206558e+00     1.262365e+00
    2.318182e+01     5.909091e+00     2.000000e+01     1.338429e+00    -1.833832e+01    -1.654574e+00     1.846139e+01     2.909817e-01    -1.454910e-01    -1.191102e+00     1.234731e+00
    2.227273e+01     6.363636e+00     2.000000e+01     1.899395e+00    -1.721230e+01    -1.469329e+00     1.737901e+01     2.649737e-01    -1.324877e-01    -1.182323e+00     1.218873e+00
    2.136364e+01     6.818182e+00     2.000000e+01     2.430200e+00    -1.614760e+01    -1.284375e+00     1.637988e+01     2.365361e-01    -1.182682e-01    -1.169304e+00     1.198837e+00
    2.045455e+01     7.272727e+00     2.000000e+01     2.974696e+00    -1.505593e+01    -1.099565e+00     1.538632e+01     2.120490e-01    -1.060254e-01    -1.154978e+00     1.179059e+00
    1.954545e+01     7.727273e+00     2.000000e+01     3.495062e+00    -1.401261e+01    -9.148566e-01     1.447085e+01     1.875650e-01    -9.378260e-02    -1.138085e+00     1.157244e+00
    1.863636e+01     8.181818e+00     2.000000e+01     4.020440e+00    -1.295907e+01    -7.302480e-01     1.358803e+01     1.654430e-01    -8.272118e-02    -1.119137e+00     1.134320e+00
    1.772727e+01     8.636364e+00     2.000000e+01     4.524948e+00    -1.194673e+01    -5.457890e-01     1.278661e+01     1.436470e-01    -7.182350e-02    -1.098328e+00     1.110008e+00
    1.681818e+01     9.090909e+00     2.000000e+01     5.027684e+00    -1.093685e+01    -3.616244e-01     1.204255e+01     1.248775e-01    -6.243858e-02    -1.075204e+00     1.084231e+00
    1.590909e+01     9.545455e+00     2.000000e+01     5.511409e+00    -9.962853e+00    -1.782343e-01     1.138709e+01     1.027557e-01    -5.137837e-02    -1.056117e+00     1.062347e+00
    1.500000e+01     1.000000e+01     1.900000e+01     5.877151e+00    -8.830097e+00     3.854590e-03     1.060715e+01     1.677201e-01     8.014009e-02    -1.024788e+00     1.041510e+00
    1.500000e+01     1.000000e+01     1.800000e+01     5.764161e+00    -8.659297e+00     4.691853e-03     1.040236e+01     1.720787e-01     8.102468e-02    -9.955898e-01     1.013595e+00
    1.500000e+01     1.000000e+01     1.700000e+01     5.648869e+00    -8.487678e+00     5.454705e-03     1.019561e+01     1.746417e-01     8.414557e-02    -9.728024e-01     9.919298e-01
    1.500000e+01     1.000000e+01     1.600000e+01     5.533915e+00    -8.312467e+00     6.020168e-03     9.986058e+00     1.758099e-01     8.614860e-02    -9.503284e-01     9.702859e-01
    1.500000e+01     1.000000e+01     1.500000e+01     5.418121e+00    -8.138788e+00     6.402434e-03     9.777318e+00     1.763481e-01     8.743811e-02    -9.292802e-01     9.498978e-01
    1.500000e+01     1.000000e+01     1.400000e+01     5.302655e+00    -7.962720e+00     6.646815e-03     9.566771e+00     1.763889e-01     8.883819e-02    -9.091004e-01     9.303057e-01
    1.500000e+01     1.000000e+01     1.300000e+01     5.186710e+00    -7.788631e+00     6.784517e-03     9.357606e+00     1.763332e-01     8.978528e-02    -8.898412e-01     9.115768e-01
    1.500000e+01     1.000000e+01     1.200000e+01     5.071065e+00    -7.612762e+00     6.863701e-03     9.147125e+00     1.760553e-01     9.092541e-02    -8.713804e-01     8.936256e-01
    1.500000e+01     1.000000e+01     1.100000e+01     4.955104e+00    -7.438740e+00     6.902542e-03     8.938007e+00     1.758463e-01     9.175480e-02    -8.537214e-01     8.764594e-01
    1.500000e+01     1.000000e+01     1.000000e+01     4.839399e+00    -7.263327e+00     6.939656e-03     8.727872e+00     1.755232e-01     9.276989e-02    -8.368054e-01     8.600337e-01
    1.500000e+01     1.000000e+01     9.000000e+00     4.723478e+00    -7.089458e+00     6.985317e-03     8.518903e+00     1.753252e-01     9.355664e-02    -8.206423e-01     8.443610e-01
    1.500000e+01     1.000000e+01     8.000000e+00     4.607766e+00    -6.914458e+00     7.071480e-03     8.309108e+00     1.750858e-01     9.450187e-02    -8.051946e-01     8.294118e-01
    1.500000e+01     1.000000e+01     7.000000e+00     4.491908e+00    -6.740637e+00     7.207184e-03     8.100215e+00     1.750184e-01     9.526557e-02    -7.904694e-01     8.151986e-01
    1.500000e+01     1.000000e+01     6.000000e+00     4.376220e+00    -6.565815e+00     7.423309e-03     7.890582e+00     1.750106e-01     9.615302e-02    -7.764407e-01     8.017072e-01
    1.500000e+01     1.000000e+01     5.000000e+00     4.260445e+00    -6.391702e+00     7.732979e-03     7.681492e+00     1.753023e-01     9.686189e-02    -7.630837e-01     7.889295e-01
    1.500000e+01     1.000000e+01     4.000000e+00     4.144802e+00    -6.216489e+00     8.170593e-03     7.471558e+00     1.759077e-01     9.764202e-02    -7.504003e-01     7.769029e-01
    1.500000e+01     1.000000e+01     3.000000e+00     4.029157e+00    -6.041113e+00     8.745872e-03     7.261490e+00     1.772259e-01     9.817964e-02    -7.381707e-01     7.654699e-01
    1.500000e+01     1.000000e+01     2.000000e+00     3.913576e+00    -5.863976e+00     9.468286e-03     7.049992e+00     1.797042e-01     9.833891e-02    -7.268051e-01     7.551224e-01
    1.500000e+01     1.000000e+01     1.000000e+00     3.798395e+00    -5.684369e+00     1.020211e-02     6.836663e+00     1.832835e-01     9.931026e-02    -7.138752e-01     7.436889e-01
    1.590909e+01     9.545455e+00     0.000000e+00     3.362862e+00    -6.146343e+00    -1.760306e-01     7.008378e+00     1.164060e-01    -5.820344e-02    -7.303784e-01     7.418831e-01
    1.681818e+01     9.090909e+00     0.000000e+00     3.028826e+00    -6.816680e+00    -3.615632e-01     7.468042e+00     1.300193e-01    -6.500961e-02    -7.554551e-01     7.693138e-01
    1.772727e+01     8.636364e+00     0.000000e+00     2.684333e+00    -7.507140e+00    -5.466134e-01     7.991344e+00     1.398530e-01    -6.992646e-02    -7.768627e-01     7.924419e-01
    1.863636e+01     8.181818e+00     0.000000e+00     2.330298e+00    -8.216153e+00    -7.314486e-01     8.571492e+00     1.495798e-01    -7.479051e-02    -7.967862e-01     8.141474e-01
    1.954545e+01     7.727273e+00     0.000000e+00     1.966094e+00    -8.945160e+00    -9.161876e-01     9.204391e+00     1.579255e-01    -7.896207e-02    -8.142690e-01     8.331924e-01
    2.045455e+01     7.272727e+00     0.000000e+00     1.595895e+00    -9.685934e+00    -1.100886e+00     9.878064e+00     1.655809e-01    -8.279054e-02    -8.293486e-01     8.497590e-01
    2.136364e+01     6.818182e+00     0.000000e+00     1.216764e+00    -1.044442e+01    -1.285570e+00     1.059335e+01     1.720426e-01    -8.602088e-02    -8.418446e-01     8.635395e-01
    2.227273e+01     6.363636e+00     0.000000e+00     8.348560e-01    -1.120835e+01    -1.470257e+00     1.133516e+01     1.776972e-01    -8.884860e-02    -8.516477e-01     8.745137e-01
    2.318182e+01     5.909091e+00     0.000000e+00     4.457763e-01    -1.198656e+01    -1.654957e+00     1.210848e+01     1.819833e-01    -9.099132e-02    -8.586847e-01     8.824607e-01
    2.409091e+01     5.454546e+00     0.000000e+00     5.694945e-02    -1.276422e+01    -1.839675e+00     1.289624e+01     1.854666e-01    -9.273313e-02    -8.623885e-01     8.869675e-01
    2.500000e+01     5.000000e+00     1.000000e+00    -2.659991e-01    -1.381654e+01    -2.024408e+00     1.396659e+01     1.868181e-01    -9.340904e-02    -8.644574e-01     8.893328e-01
    2.500000e+01     5.000000e+00     2.000000e+00    -2.000493e-01    -1.409109e+01    -2.024404e+00     1.423717e+01     1.892705e-01    -9.463525e-02    -8.683986e-01     8.938094e-01
    2.500000e+01     5.000000e+00     3.000000e+00    -1.328449e-01    -1.436315e+01    -2.024385e+00     1.450572e+01     1.938054e-01    -9.690268e-02    -8.741369e-01     9.005921e-01
    2.500000e+01     5.000000e+00     4.000000e+00    -7.255740e-02    -1.464906e+01    -2.024345e+00     1.478845e+01     1.998206e-01    -9.991032e-02    -8.813834e-01     9.092564e-01
    2.500000e+01     5.000000e+00     5.000000e+00    -1.198519e-02    -1.493438e+01    -2.024285e+00     1.507095e+01     2.071154e-01    -1.035577e-01    -8.904500e-01     9.200664e-01
    2.500000e+01     5.000000e+00     6.000000e+00     3.969622e-02    -1.523744e+01    -2.024208e+00     1.537135e+01     2.154474e-01    -1.077237e-01    -9.008307e-01     9.324795e-01
    2.500000e+01     5.000000e+00     7.000000e+00     9.153259e-02    -1.554012e+01    -2.024125e+00     1.567165e+01     2.246432e-01    -1.123216e-01    -9.130064e-01     9.469220e-01
    2.500000e+01     5.000000e+00     8.000000e+00     1.325046e-01    -1.586446e+01    -2.024043e+00     1.599360e+01     2.344907e-01    -1.172454e-01    -9.263987e-01     9.627809e-01
    2.500000e+01     5.000000e+00     9.000000e+00     1.743218e-01    -1.618704e+01    -2.023975e+00     1.631401e+01     2.448493e-01    -1.224247e-01    -9.416356e-01     9.806205e-01
    2.500000e+01     5.000000e+00     1.000000e+01     2.031756e-01    -1.653549e+01    -2.023931e+00     1.666013e+01     2.554973e-01    -1.277487e-01    -9.579962e-01     9.996776e-01
    2.500000e+01     5.000000e+00     1.100000e+01     2.344732e-01    -1.687901e+01    -2.023923e+00     1.700153e+01     2.663279e-01    -1.331640e-01    -9.763395e-01     1.020736e+00
    2.500000e+01     5.000000e+00     1.200000e+01     2.504133e-01    -1.725323e+01    -2.023968e+00     1.737334e+01     2.770846e-01    -1.385423e-01    -9.956785e-01     1.042759e+00
    2.500000e+01     5.000000e+00     1.300000e+01     2.715023e-01    -1.761718e+01    -2.024084e+00     1.773515e+01     2.877194e-01    -1.438597e-01    -1.017282e+00     1.066931e+00
    2.500000e+01     5.000000e+00     1.400000e+01     2.742695e-01    -1.801787e+01    -2.024296e+00     1.813330e+01     2.978916e-01    -1.489458e-01    -1.039656e+00     1.091700e+00
    2.500000e+01     5.000000e+00     1.500000e+01     2.863802e-01    -1.840008e+01    -2.024635e+00     1.851335e+01     3.077241e-01    -1.538621e-01    -1.064929e+00     1.119125e+00
    2.500000e+01     5.000000e+00     1.600000e+01     2.760801e-01    -1.882749e+01    -2.025145e+00     1.893810e+01     3.166037e-01    -1.583019e-01    -1.090416e+00     1.146431e+00
    2.500000e+01     5.000000e+00     1.700000e+01     2.816123e-01    -1.922389e+01    -2.025889e+00     1.933239e+01     3.254648e-01    -1.627324e-01    -1.120745e+00     1.178337e+00
    2.500000e+01     5.000000e+00     1.800000e+01     2.580927e-01    -1.967975e+01    -2.026993e+00     1.978555e+01     3.317011e-01    -1.658505e-01    -1.148702e+00     1.207082e+00
    2.500000e+01     5.000000e+00     1.900000e+01     2.613394e-01    -2.008439e+01    -2.028599e+00     2.018827e+01     3.446408e-01    -1.723209e-01    -1.193651e+00     1.254303e+00
    1.416667e+01     9.444445e+00     2.000000e+01     5.410006e+00    -8.126621e+00     5.025401e-03     9.762693e+00     1.385071e-01     9.233855e-02    -1.004039e+00     1.017745e+00
    1.333333e+01     8.888889e+00     2.000000e+01     4.856955e+00    -7.297439e+00     5.227616e-03     8.765994e+00     1.131113e-01     7.540692e-02    -9.628624e-01     9.724117e-01
    1.250000e+01     8.333333e+00     2.000000e+01     4.322662e+00    -6.495972e+00     5.073550e-03     7.802762e+00     9.418696e-02     6.279185e-02    -9.242848e-01     9.311909e-01
    1.166667e+01     7.777778e+00     2.000000e+01     3.813667e+00    -5.732167e+00     4.735147e-03     6.884897e+00     7.500448e-02     5.000324e-02    -8.822565e-01     8.868498e-01
    1.083333e+01     7.222222e+00     2.000000e+01     3.327720e+00    -5.002752e+00     4.327596e-03     6.008433e+00     5.755136e-02     3.836708e-02    -8.380586e-01     8.409081e-01
    1.000000e+01     6.666667e+00     2.000000e+01     2.868643e+00    -4.313527e+00     3.896639e-03     5.180313e+00     4.099857e-02     2.733258e-02    -7.911429e-01     7.926759e-01
    9.166667e+00     6.111111e+00     2.000000e+01     2.436132e+00    -3.664067e+00     3.466975e-03     4.400016e+00     2.576531e-02     1.717693e-02    -7.415407e-01     7.421870e-01
    8.333333e+00     5.555555e+00     2.000000e+01     2.033101e+00    -3.058768e+00     3.051866e-03     3.672816e+00     1.169008e-02     7.793336e-03    -6.890450e-01     6.891883e-01
    7.500000e+00     5.000000e+00     2.000000e+01     1.660174e+00    -2.498583e+00     2.659063e-03     2.999850e+00    -1.003428e-03    -6.688591e-04    -6.335512e-01     6.335524e-01
    6.666667e+00     4.444445e+00     2.000000e+01     1.319929e+00    -1.987386e+00     2.293094e-03     2.385775e+00    -1.227704e-02    -8.184896e-03    -5.748859e-01     5.750752e-01
    5.833333e+00     3.888889e+00     2.000000e+01     1.013586e+00    -1.527021e+00     1.956297e-03     1.832799e+00    -2.190815e-02    -1.460532e-02    -5.129091e-01     5.135845e-01
    5.000000e+00     3.333333e+00     2.000000e+01     7.436270e-01    -1.121212e+00     1.649188e-03     1.345400e+00    -2.971905e-02    -1.981270e-02    -4.474602e-01     4.488835e-01
    4.166667e+00     2.777778e+00     2.000000e+01     5.117385e-01    -7.724965e-01     1.370472e-03     9.266223e-01    -3.540895e-02    -2.360595e-02    -3.784280e-01     3.808133e-01
    3.333333e+00     2.222222e+00     2.000000e+01     3.203920e-01    -4.845839e-01     1.116492e-03     5.809250e-01    -3.858809e-02    -2.572541e-02    -3.057384e-01     3.092358e-01
    2.500000e+00     1.666667e+00     2.000000e+01     1.716310e-01    -2.605396e-01     8.805088e-04     3.119918e-01    -3.882431e-02    -2.588289e-02    -2.296002e-01     2.342936e-01
    1.666667e+00     1.111111e+00     2.000000e+01     6.771132e-02    -1.037406e-01     6.472306e-04     1.238844e-01    -3.487204e-02    -2.324800e-02    -1.503482e-01     1.560805e-01
    8.333333e-01     5.555556e-01     2.000000e+01     1.061194e-02    -1.711548e-02     4.003007e-04     2.014233e-02    -2.748808e-02    -1.832539e-02    -7.196409e-02     7.918487e-02
    0.000000e+00     0.000000e+00     1.900000e+01     0.000000e+00     0.000000e+00     0.000000e+00     0.000000e+00     0.000000e+00     0.000000e+00     0.000000e+00     0.000000e+00
    0.000000e+00     0.000000e+00     1.800000e+01     0.000000e+00     0.000000e+00     0.000000e+00     0.000000e+00     0.000000e+00     0.000000e+00     0.000000e+00     0.000000e+00
    0.000000e+00     0.000000e+00     1.700000e+01     0.000000e+00     0.000000e+00     0.000000e+00     0.000000e+00     0.000000e+00     0.000000e+00     0.000000e+00     0.000000e+00
    0.000000e+00     0.000000e+00     1.600000e+01     0.000000e+00     0.000000e+00     0.000000e+00     0.000000e+00     0.000000e+00     0.000000e+00     0.000000e+00     0.000000e+00
    0.000000e+00     0.000000e+00     1.500000e+01     0.000000e+00     0.000000e+00     0.000000e+00     0.000000e+00     0.000000e+00     0.000000e+00     0.000000e+00     0.000000e+00
    0.000000e+00     0.000000e+00     1.400000e+01     0.000000e+00     0.000000e+00     0.000000e+00     0.000000e+00     0.000000e+00     0.000000e+00     0.000000e+00     0.000000e+00
    0.000000e+00     0.000000e+00     1.300000e+01     0.000000e+00     0.000000e+00     0.000000e+00     0.000000e+00     0.000000e+00     0.000000e+00     0.000000e+00     0.000000e+00
    0.000000e+00     0.000000e+00     1.200000e+01     0.000000e+00     0.000000e+00     0.000000e+00     0.000000e+00     0.000000e+00     0.000000e+00     0.000000e+00     0.000000e+00
    0.000000e+00     0.000000e+00     1.100000e+01     0.000000e+00     0.000000e+00     0.000000e+00     0.000000e+00     0.000000e+00     0.000000e+00     0.000000e+00     0.000000e+00
    0.000000e+00     0.000000e+00     1.000000e+01     0.000000e+00     0.000000e+00     0.000000e+00     0.000000e+00     0.000000e+00     0.000000e+00     0.000000e+00     0.000000e+00
    0.000000e+00     0.000000e+00     9.000000e+00     0.000000e+00     0.000000e+00     0.000000e+00     0.000000e+00     0.000000e+00     0.000000e+00     0.000000e+00     0.000000e+00
    0.000000e+00     0.000000e+00     8.000000e+00     0.000000e+00     0.000000e+00     0.000000e+00     0.000000e+00     0.000000e+00     0.000000e+00     0.000000e+00     0.000000e+00
    0.000000e+00     0.000000e+00     7.000000e+00     0.000000e+00     0.000000e+00     0.000000e+00     0.000000e+00     0.000000e+00     0.000000e+00     0.000000e+00     0.000000e+00
    0.000000e+00     0.000000e+00     6.000000e+00     0.000000e+00     0.000000e+00     0.000000e+00     0.000000e+00     0.000000e+00     0.000000e+00     0.000000e+00     0.000000e+00
    0.000000e+00     0.000000e+00     5.000000e+00     0.000000e+00     0.000000e+00     0.000000e+00     0.000000e+00     0.000000e+00     0.000000e+00     0.000000e+00     0.000000e+00
    0.000000e+00     0.000000e+00     4.000000e+00     0.000000e+00     0.000000e+00     0.000000e+00     0.000000e+00     0.000000e+00     0.000000e+00     0.000000e+00     0.000000e+00
    0.000000e+00     0.000000e+00     3.000000e+00     0.000000e+00     0.000000e+00     0.000000e+00     0.000000e+00     0.000000e+00     0.000000e+00     0.000000e+00     0.000000e+00
    0.000000e+00     0.000000e+00     2.000000e+00     0.000000e+00     0.000000e+00     0.000000e+00     0.000000e+00     0.000000e+00     0.000000e+00     0.000000e+00     0.000000e+00
    0.000000e+00     0.000000e+00     1.000000e+00     0.000000e+00     0.000000e+00     0.000000e+00     0.000000e+00     0.000000e+00     0.000000e+00     0.000000e+00     0.000000e+00
    8.333333e-01     5.555556e-01     0.000000e+00    -3.425790e-03     5.627891e-03     1.118998e-04     6.589515e-03     1.831557e-02     1.221038e-02    -1.995076e-02     2.970835e-02
    1.666667e+00     1.111111e+00     0.000000e+00     9.687494e-03    -1.357473e-02     1.654677e-04     1.667778e-02     3.385817e-02     2.257206e-02    -5.547790e-02     6.880168e-02
    2.500000e+00     1.666667e+00     0.000000e+00     4.601237e-02    -6.757181e-02     2.367555e-04     8.175049e-02     4.927722e-02     3.285160e-02    -9.951831e-02     1.158075e-01
    3.333333e+00     2.222222e+00     0.000000e+00     1.083929e-01    -1.606256e-01     3.375275e-04     1.937775e-01     6.362965e-02     4.241964e-02    -1.471323e-01     1.658194e-01
    4.166667e+00     2.777778e+00     0.000000e+00     1.983549e-01    -2.950268e-01     4.752197e-04     3.555077e-01     7.709985e-02     5.139992e-02    -1.964911e-01     2.172443e-01
    5.000000e+00     3.333333e+00     0.000000e+00     3.162641e-01    -4.713239e-01     6.528610e-04     5.675999e-01     8.967879e-02     5.978586e-02    -2.463430e-01     2.688894e-01
    5.833333e+00     3.888889e+00     0.000000e+00     4.623467e-01    -6.898537e-01     8.720974e-04     8.304598e-01     1.014230e-01     6.761554e-02    -2.958939e-01     3.200183e-01
    6.666667e+00     4.444445e+00     0.000000e+00     6.359740e-01    -9.496674e-01     1.134135e-03     1.142949e+00     1.123621e-01     7.490784e-02    -3.445807e-01     3.700976e-01
    7.500000e+00     5.000000e+00     0.000000e+00     8.368543e-01    -1.250319e+00     1.440174e-03     1.504535e+00     1.225369e-01     8.169134e-02    -3.919884e-01     4.187406e-01
    8.333333e+00     5.555555e+00     0.000000e+00     1.063791e+00    -1.589998e+00     1.792487e-03     1.913047e+00     1.319606e-01     8.797366e-02    -4.377999e-01     4.656412e-01
    9.166667e+00     6.111111e+00     0.000000e+00     1.316277e+00    -1.967924e+00     2.194918e-03     2.367555e+00     1.406633e-01     9.377554e-02    -4.817536e-01     5.105551e-01
    1.000000e+01     6.666667e+00     0.000000e+00     1.592700e+00    -2.381641e+00     2.654823e-03     2.865120e+00     1.486272e-01     9.908494e-02    -5.236296e-01     5.532593e-01
    1.083333e+01     7.222222e+00     0.000000e+00     1.892492e+00    -2.830244e+00     3.186358e-03     3.404676e+00     1.558839e-01     1.039224e-01    -5.631942e-01     5.935380e-01
    1.166667e+01     7.777778e+00     0.000000e+00     2.213629e+00    -3.310607e+00     3.817394e-03     3.982498e+00     1.623347e-01     1.082232e-01    -6.002371e-01     6.311493e-01
    1.250000e+01     8.333333e+00     0.000000e+00     2.555582e+00    -3.821783e+00     4.608051e-03     4.597504e+00     1.681375e-01     1.120919e-01    -6.342894e-01     6.657010e-01
    1.333333e+01     8.888889e+00     0.000000e+00     2.915656e+00    -4.359451e+00     5.693872e-03     5.244607e+00     1.726695e-01     1.151129e-01    -6.652629e-01     6.968791e-01
    1.416667e+01     9.444445e+00     0.000000e+00     3.293390e+00    -4.922426e+00     7.451210e-03     5.922563e+00     1.780621e-01     1.187081e-01    -6.896473e-01     7.220881e-01
    2.409091e+01     5.454545e+00     1.900000e+01     7.826811e-01    -1.904182e+01    -1.840221e+00     1.914654e+01     3.327105e-01    -1.663565e-01    -1.193934e+00     1.250539e+00
    2.318182e+01     5.909091e+00     1.900000e+01     1.336318e+00    -1.793282e+01    -1.654202e+00     1.805846e+01     2.932041e-01    -1.466025e-01    -1.185960e+00     1.230432e+00
    2.227273e+01     6.363636e+00     1.900000e+01     1.856911e+00    -1.688933e+01    -1.468999e+00     1.705449e+01     2.666168e-01    -1.333092e-01    -1.175224e+00     1.212438e+00
    2.136364e+01     6.818182e+00     1.900000e+01     2.396564e+00    -1.580779e+01    -1.284073e+00     1.603991e+01     2.398155e-01    -1.199081e-01    -1.163513e+00     1.194007e+00
    2.045455e+01     7.272727e+00     1.900000e+01     2.910752e+00    -1.477728e+01    -1.099276e+00     1.510129e+01     2.153162e-01    -1.076588e-01    -1.149103e+00     1.174049e+00
    1.954545e+01     7.727273e+00     1.900000e+01     3.434366e+00    -1.372792e+01    -9.145621e-01     1.418052e+01     1.919056e-01    -9.595283e-02    -1.132722e+00     1.152864e+00
    1.863636e+01     8.181818e+00     1.900000e+01     3.936624e+00    -1.272118e+01    -7.299287e-01     1.333635e+01     1.699726e-01    -8.498592e-02    -1.113983e+00     1.130076e+00
    1.772727e+01     8.636364e+00     1.900000e+01     4.440867e+00    -1.171027e+01    -5.454211e-01     1.253592e+01     1.488976e-01    -7.444876e-02    -1.093277e+00     1.105879e+00
    1.681818e+01     9.090909e+00     1.900000e+01     4.926538e+00    -1.073625e+01    -3.611869e-01     1.181813e+01     1.301305e-01    -6.506502e-02    -1.071054e+00     1.080891e+00
    1.590909e+01     9.545455e+00     1.900000e+01     5.408741e+00    -9.769083e+00    -1.776269e-01     1.116786e+01     1.066391e-01    -5.332035e-02    -1.048538e+00     1.055295e+00
    2.409091e+01     5.454545e+00     1.800000e+01     7.961634e-01    -1.860305e+01    -1.840389e+00     1.871081e+01     3.266714e-01    -1.633357e-01    -1.150636e+00     1.207210e+00
    2.318182e+01     5.909091e+00     1.800000e+01     1.305809e+00    -1.758373e+01    -1.654273e+00     1.770958e+01     2.922952e-01    -1.461475e-01    -1.148152e+00     1.193754e+00
    2.227273e+01     6.363636e+00     1.800000e+01     1.838071e+00    -1.651851e+01    -1.468938e+00     1.668525e+01     2.662752e-01    -1.331376e-01    -1.140784e+00     1.178990e+00
    2.136364e+01     6.818182e+00     1.800000e+01     2.344482e+00    -1.550456e+01    -1.283953e+00     1.573329e+01     2.408988e-01    -1.204494e-01    -1.130880e+00     1.162511e+00
    2.045455e+01     7.272727e+00     1.800000e+01     2.864206e+00    -1.446379e+01    -1.099135e+00     1.478557e+01     2.169941e-01    -1.084971e-01    -1.118518e+00     1.144526e+00
    1.954545e+01     7.727273e+00     1.800000e+01     3.362235e+00    -1.346636e+01    -9.144201e-01     1.390984e+01     1.943927e-01    -9.719630e-02    -1.103614e+00     1.124811e+00
    1.863636e+01     8.181818e+00     1.800000e+01     3.865797e+00    -1.245788e+01    -7.298061e-01     1.306429e+01     1.728748e-01    -8.643745e-02    -1.086482e+00     1.103540e+00
    1.772727e+01     8.636364e+00     1.800000e+01     4.350686e+00    -1.148688e+01    -5.453496e-01     1.229529e+01     1.521675e-01    -7.608369e-02    -1.067133e+00     1.080609e+00
    1.681818e+01     9.090909e+00     1.800000e+01     4.834718e+00    -1.051794e+01    -3.612089e-01     1.158154e+01     1.333058e-01    -6.665264e-02    -1.046174e+00     1.056737e+00
    1.590909e+01     9.545455e+00     1.800000e+01     5.303252e+00    -9.580745e+00    -1.777497e-01     1.095202e+01     1.088530e-01    -5.442744e-02    -1.022987e+00     1.030201e+00
    2.409091e+01     5.454545e+00     1.700000e+01     7.788832e-01    -1.822901e+01    -1.840172e+00     1.833820e+01     3.188803e-01    -1.594402e-01    -1.121634e+00     1.176932e+00
    2.318182e+01     5.909091e+00     1.700000e+01     1.299703e+00    -1.718733e+01    -1.654447e+00     1.731562e+01     2.879360e-01    -1.439680e-01    -1.119579e+00     1.164942e+00
    2.227273e+01     6.363636e+00     1.700000e+01     1.797129e+00    -1.619240e+01    -1.469072e+00     1.635792e+01     2.639449e-01    -1.319725e-01    -1.114244e+00     1.152660e+00
    2.136364e+01     6.818182e+00     1.700000e+01     2.310593e+00    -1.516510e+01    -1.284022e+00     1.539375e+01     2.395403e-01    -1.197701e-01    -1.105653e+00     1.137626e+00
    2.045455e+01     7.272727e+00     1.700000e+01     2.802734e+00    -1.418024e+01    -1.099173e+00     1.449630e+01     2.167837e-01    -1.083919e-01    -1.094465e+00     1.120980e+00
    1.954545e+01     7.727273e+00     1.700000e+01     3.303503e+00    -1.317806e+01    -9.144649e-01     1.361655e+01     1.947710e-01    -9.738548e-02    -1.080724e+00     1.102445e+00
    1.863636e+01     8.181818e+00     1.700000e+01     3.785578e+00    -1.221335e+01    -7.298983e-01     1.280739e+01     1.738307e-01    -8.691539e-02    -1.064502e+00     1.082098e+00
    1.772727e+01     8.636364e+00     1.700000e+01     4.269612e+00    -1.124496e+01    -5.455289e-01     1.204061e+01     1.532722e-01    -7.663606e-02    -1.046028e+00     1.059972e+00
    1.681818e+01     9.090909e+00     1.700000e+01     4.737381e+00    -1.030952e+01    -3.614825e-01     1.135164e+01     1.341219e-01    -6.706067e-02    -1.025121e+00     1.036030e+00
    1.590909e+01     9.545455e+00     1.700000e+01     5.200617e+00    -9.383563e+00    -1.779008e-01     1.072983e+01     1.100733e-01    -5.503751e-02    -1.001001e+00     1.008538e+00
    2.409091e+01     5.454545e+00     1.600000e+01     7.824980e-01    -1.781438e+01    -1.839899e+00     1.792623e+01     3.112172e-01    -1.556086e-01    -1.092879e+00     1.146933e+00
    2.318182e+01     5.909091e+00     1.600000e+01     1.269668e+00    -1.684001e+01    -1.654511e+00     1.696866e+01     2.822678e-01    -1.411338e-01    -1.092083e+00     1.136767e+00
    2.227273e+01     6.363636e+00     1.600000e+01     1.774176e+00    -1.583107e+01    -1.469252e+00     1.599778e+01     2.597220e-01    -1.298611e-01    -1.087548e+00     1.125647e+00
    2.136364e+01     6.818182e+00     1.600000e+01     2.259089e+00    -1.486125e+01    -1.284202e+00     1.508673e+01     2.367523e-01    -1.183761e-01    -1.080268e+00     1.112225e+00
    2.045455e+01     7.272727e+00     1.600000e+01     2.754967e+00    -1.386940e+01    -1.099344e+00     1.418304e+01     2.148167e-01    -1.074084e-01    -1.070053e+00     1.096675e+00
    1.954545e+01     7.727273e+00     1.600000e+01     3.232672e+00    -1.291387e+01    -9.146497e-01     1.334372e+01     1.936579e-01    -9.682894e-02    -1.057236e+00     1.079179e+00
    1.863636e+01     8.181818e+00     1.600000e+01     3.714941e+00    -1.194931e+01    -7.301242e-01     1.253474e+01     1.731430e-01    -8.657153e-02    -1.041838e+00     1.059670e+00
    1.772727e+01     8.636364e+00     1.600000e+01     4.180815e+00    -1.101772e+01    -5.458038e-01     1.179691e+01     1.528737e-01    -7.643683e-02    -1.023823e+00     1.037992e+00
    1.681818e+01     9.090909e+00     1.600000e+01     4.644939e+00    -1.008985e+01    -3.617378e-01     1.111356e+01     1.338495e-01    -6.692450e-02    -1.003016e+00     1.014118e+00
    1.590909e+01     9.545455e+00     1.600000e+01     5.093968e+00    -9.192247e+00    -1.778845e-01     1.051083e+01     1.103162e-01    -5.515895e-02    -9.787193e-01     9.864602e-01
    2.409091e+01     5.454545e+00     1.500000e+01     7.623137e-01    -1.744802e+01    -1.839660e+00     1.756129e+01     3.023457e-01    -1.511729e-01    -1.066909e+00     1.119179e+00
    2.318182e+01     5.909091e+00     1.500000e+01     1.255575e+00    -1.646148e+01    -1.654522e+00     1.659200e+01     2.755882e-01    -1.377941e-01    -1.066467e+00     1.110084e+00