TITLE="CPS6"
VARIABLES="X""Y""U""V""M"
ZONE T="flow-field",N=     163,E=     267,ET=TRIANGLE,F=FEPOINT
    4.500000e+01     1.000000e+01     4.237119e-04    -1.421048e-01     1.421054e-01
    0.000000e+00     0.000000e+00     0.000000e+00     0.000000e+00     0.000000e+00
    4.500000e+01     1.500000e+01     3.731072e-02    -1.456346e-01     1.503380e-01
    0.000000e+00     1.500000e+01     0.000000e+00     0.000000e+00     0.000000e+00
    4.304348e+01     9.565217e+00    -2.331292e-03    -1.287396e-01     1.287607e-01
    4.108696e+01     9.130435e+00    -4.429850e-03    -1.155408e-01     1.156257e-01
    3.913044e+01     8.695652e+00    -6.022792e-03    -1.030792e-01     1.032550e-01
    3.717391e+01     8.260870e+00    -7.272225e-03    -9.146816e-02     9.175679e-02
    3.521739e+01     7.826087e+00    -8.239362e-03    -8.070735e-02     8.112683e-02
    3.326087e+01     7.391304e+00    -8.958557e-03    -7.078048e-02     7.134516e-02
    3.130435e+01     6.956522e+00    -9.455256e-03    -6.166399e-02     6.238469e-02
    2.934783e+01     6.521739e+00    -9.753965e-03    -5.332819e-02     5.421287e-02
    2.739130e+01     6.086957e+00    -9.874051e-03    -4.573998e-02     4.679362e-02
    2.543478e+01     5.652174e+00    -9.832503e-03    -3.886505e-02     4.008953e-02
    2.347826e+01     5.217391e+00    -9.643906e-03    -3.266891e-02     3.406263e-02
    2.152174e+01     4.782609e+00    -9.320965e-03    -2.711791e-02     2.867510e-02
    1.956522e+01     4.347826e+00    -8.874918e-03    -2.217932e-02     2.388904e-02
    1.760870e+01     3.913044e+00    -8.315273e-03    -1.782220e-02     1.966659e-02
    1.565217e+01     3.478261e+00    -7.650347e-03    -1.401758e-02     1.596936e-02
    1.369565e+01     3.043478e+00    -6.887643e-03    -1.073870e-02     1.275771e-02
    1.173913e+01     2.608696e+00    -6.034351e-03    -7.961329e-03     9.989802e-03
    9.782609e+00     2.173913e+00    -5.098817e-03    -5.663880e-03     7.620858e-03
    7.826087e+00     1.739130e+00    -4.093354e-03    -3.826275e-03     5.603207e-03
    5.869565e+00     1.304348e+00    -3.039125e-03    -2.425698e-03     3.888482e-03
    3.913044e+00     8.695652e-01    -1.973620e-03    -1.424244e-03     2.433854e-03
    1.956522e+00     4.347826e-01    -9.651202e-04    -7.297140e-04     1.209934e-03
    4.500000e+01     1.333333e+01     2.261709e-02    -1.432805e-01     1.450546e-01
    4.500000e+01     1.166667e+01     1.144767e-02    -1.422409e-01     1.427008e-01
    1.956522e+00     1.500000e+01     1.572865e-03    -7.479259e-04     1.741636e-03
    3.913044e+00     1.500000e+01     2.997844e-03    -1.488384e-03     3.346991e-03
    5.869565e+00     1.500000e+01     4.450878e-03    -2.555316e-03     5.132247e-03
    7.826087e+00     1.500000e+01     5.927294e-03    -4.009817e-03     7.156217e-03
    9.782609e+00     1.500000e+01     7.426564e-03    -5.882954e-03     9.474334e-03
    1.173913e+01     1.500000e+01     8.949761e-03    -8.200179e-03     1.213842e-02
    1.369565e+01     1.500000e+01     1.049760e-02    -1.098690e-02     1.519578e-02
    1.565217e+01     1.500000e+01     1.206996e-02    -1.426938e-02     1.868954e-02
    1.760870e+01     1.500000e+01     1.366595e-02    -1.807489e-02     2.265965e-02
    1.956522e+01     1.500000e+01     1.528412e-02    -2.243192e-02     2.714397e-02
    2.152174e+01     1.500000e+01     1.692239e-02    -2.737025e-02     3.217915e-02
    2.347826e+01     1.500000e+01     1.857804e-02    -3.292110e-02     3.780136e-02
    2.543478e+01     1.500000e+01     2.024740e-02    -3.911709e-02     4.404661e-02
    2.739130e+01     1.500000e+01     2.192560e-02    -4.599197e-02     5.095089e-02
    2.934783e+01     1.500000e+01     2.360610e-02    -5.358022e-02     5.854987e-02
    3.130435e+01     1.500000e+01     2.528005e-02    -6.191624e-02     6.687826e-02
    3.326087e+01     1.500000e+01     2.693537e-02    -7.103293e-02     7.596836e-02
    3.521739e+01     1.500000e+01     2.855537e-02    -8.095920e-02     8.584755e-02
    3.717391e+01     1.500000e+01     3.011711e-02    -9.171497e-02     9.653329e-02
    3.913044e+01     1.500000e+01     3.159162e-02    -1.033002e-01     1.080230e-01
    4.108696e+01     1.500000e+01     3.297173e-02    -1.156774e-01     1.202846e-01
    4.304348e+01     1.500000e+01     3.454647e-02    -1.288551e-01     1.334057e-01
    0.000000e+00     1.875000e+00     0.000000e+00     0.000000e+00     0.000000e+00
    0.000000e+00     3.750000e+00     0.000000e+00     0.000000e+00     0.000000e+00
    0.000000e+00     5.625000e+00     0.000000e+00     0.000000e+00     0.000000e+00
    0.000000e+00     7.500000e+00     0.000000e+00     0.000000e+00     0.000000e+00
    0.000000e+00     9.375000e+00     0.000000e+00     0.000000e+00     0.000000e+00
    0.000000e+00     1.125000e+01     0.000000e+00     0.000000e+00     0.000000e+00
    0.000000e+00     1.312500e+01     0.000000e+00     0.000000e+00     0.000000e+00
    2.489601e+00     2.220772e+00    -1.056629e-03    -6.734291e-04     1.252985e-03
    3.389532e+01     9.634612e+00     1.154871e-03    -7.366720e-02     7.367625e-02
    4.364384e+01     1.105796e+01     7.448946e-03    -1.329099e-01     1.331185e-01
    4.183216e+01     1.136731e+01     9.576218e-03    -1.204115e-01     1.207917e-01
    3.977578e+01     1.068602e+01     5.575155e-03    -1.069522e-01     1.070974e-01
    3.796823e+01     1.015362e+01     2.825330e-03    -9.590732e-02     9.594892e-02
    3.607017e+01     9.846773e+00     1.640569e-03    -8.509117e-02     8.510699e-02
    3.189930e+01     8.821675e+00    -1.918536e-03    -6.412106e-02     6.414975e-02
    2.998939e+01     8.389624e+00    -2.974665e-03    -5.573728e-02     5.581660e-02
    2.802482e+01     8.014210e+00    -3.593440e-03    -4.786344e-02     4.799814e-02
    2.602371e+01     7.645916e+00    -4.017472e-03    -4.059414e-02     4.079245e-02
    2.401286e+01     7.179601e+00    -4.578095e-03    -3.402730e-02     3.433389e-02
    2.209424e+01     6.627643e+00    -5.202605e-03    -2.842052e-02     2.889279e-02
    2.018105e+01     6.260003e+00    -5.192008e-03    -2.340523e-02     2.397419e-02
    1.819127e+01     5.910533e+00    -5.006438e-03    -1.878501e-02     1.944071e-02
    1.622459e+01     5.423515e+00    -4.971484e-03    -1.480608e-02     1.561844e-02
    1.428945e+01     4.960576e+00    -4.764058e-03    -1.141575e-02     1.236995e-02
    1.234035e+01     4.517777e+00    -4.396596e-03    -8.501306e-03     9.570906e-03
    1.038512e+01     4.081290e+00    -3.908762e-03    -6.061797e-03     7.212753e-03
    8.428793e+00     3.645387e+00    -3.319875e-03    -4.086891e-03     5.265382e-03
    6.461774e+00     3.192617e+00    -2.644096e-03    -2.552234e-03     3.674934e-03
    4.486187e+00     2.695287e+00    -1.894794e-03    -1.439479e-03     2.379568e-03
    4.339830e+01     1.263910e+01     1.783272e-02    -1.312792e-01     1.324849e-01
    3.276676e+00     1.346061e+01     1.913201e-03    -9.080765e-04     2.117768e-03
    4.929583e+00     1.331769e+01     2.819672e-03    -1.663255e-03     3.273678e-03
    6.861572e+00     1.331017e+01     3.927083e-03    -2.905173e-03     4.884876e-03
    8.808034e+00     1.330505e+01     5.040598e-03    -4.555125e-03     6.793879e-03
    1.076167e+01     1.330284e+01     6.161778e-03    -6.640667e-03     9.059027e-03
    1.271749e+01     1.330189e+01     7.288243e-03    -9.184793e-03     1.172514e-02
    1.467390e+01     1.330151e+01     8.418232e-03    -1.221233e-02     1.483265e-02
    1.663040e+01     1.330127e+01     9.549414e-03    -1.574967e-02     1.841856e-02
    1.858692e+01     1.330108e+01     1.067936e-02    -1.982468e-02     2.251814e-02
    2.055844e+01     1.330168e+01     1.181570e-02    -2.450459e-02     2.720452e-02
    2.253573e+01     1.328180e+01     1.288969e-02    -2.980440e-02     3.247224e-02
    2.449848e+01     1.323650e+01     1.384984e-02    -3.569769e-02     3.829025e-02
    2.645040e+01     1.323702e+01     1.491670e-02    -4.222884e-02     4.478597e-02
    2.840649e+01     1.329227e+01     1.617413e-02    -4.948022e-02     5.205665e-02
    3.037055e+01     1.333508e+01     1.739329e-02    -5.749640e-02     6.006964e-02
    3.231689e+01     1.333193e+01     1.838518e-02    -6.619620e-02     6.870191e-02
    3.424037e+01     1.329993e+01     1.917144e-02    -7.556713e-02     7.796112e-02
    3.614576e+01     1.330938e+01     2.009147e-02    -8.564282e-02     8.796795e-02
    3.801904e+01     1.328902e+01     2.076451e-02    -9.632107e-02     9.853382e-02
    4.004543e+01     1.293221e+01     1.929694e-02    -1.087013e-01     1.104008e-01
    1.778137e+00     8.458138e+00     1.102223e-04    -1.011566e-04     1.496049e-04
    1.821215e+00     1.040296e+01     4.457310e-04    -1.404042e-04     4.673215e-04
    1.748711e+00     6.614564e+00    -1.734255e-04    -1.311529e-04     2.174339e-04
    1.801745e+00     1.245800e+01     8.209988e-04    -2.718580e-04     8.648386e-04
    1.624497e+00     4.841477e+00    -3.888269e-04    -1.904635e-04     4.329696e-04
    1.445741e+00     3.335039e+00    -4.942748e-04    -2.551241e-04     5.562337e-04
    3.658095e+00     9.412295e+00     5.610492e-04    -6.616006e-04     8.674628e-04
    1.962380e+01     1.161330e+01     7.257464e-03    -2.198271e-02     2.314974e-02
    2.354647e+01     1.149722e+01     8.112035e-03    -3.253606e-02     3.353207e-02
    2.753958e+01     1.151547e+01     9.153177e-03    -4.597314e-02     4.687547e-02
    3.140338e+01     1.174958e+01     1.092204e-02    -6.183759e-02     6.279473e-02
    5.907839e+00     1.164787e+01     2.302353e-03    -2.004735e-03     3.052834e-03
    1.172102e+01     1.156958e+01     4.440914e-03    -7.585199e-03     8.789594e-03
    1.567593e+01     1.156491e+01     5.837226e-03    -1.371712e-02     1.490747e-02
    3.799006e+00     1.154972e+01     1.419628e-03    -8.599637e-04     1.659784e-03
    7.832432e+00     1.161374e+01     3.029212e-03    -3.434069e-03     4.579188e-03
    9.765122e+00     1.155650e+01     3.705367e-03    -5.274151e-03     6.445651e-03
    3.511132e+01     1.156260e+01     1.060790e-02    -7.991452e-02     8.061550e-02
    1.368419e+01     1.159793e+01     5.192204e-03    -1.037863e-02     1.160495e-02
    1.766302e+01     1.159481e+01     6.570371e-03    -1.759639e-02     1.878304e-02
    2.159347e+01     1.158745e+01     7.808856e-03    -2.697521e-02     2.808274e-02
    2.554093e+01     1.141370e+01     8.347043e-03    -3.888461e-02     3.977041e-02
    2.951826e+01     1.165596e+01     1.012802e-02    -5.373203e-02     5.467822e-02
    3.320533e+01     1.166083e+01     1.084459e-02    -7.025596e-02     7.108801e-02
    3.856480e+01     1.174460e+01     1.190573e-02    -9.946325e-02     1.001733e-01
    3.697989e+01     1.165100e+01     1.125260e-02    -9.016312e-02     9.086258e-02
    2.441766e+01     9.426070e+00     1.947642e-03    -3.515895e-02     3.521286e-02
    2.086305e+01     7.845357e+00    -1.756446e-03    -2.499550e-02     2.505713e-02
    2.874789e+01     9.888747e+00     3.148011e-03    -5.057382e-02     5.067170e-02
    1.671043e+01     7.401759e+00    -1.708017e-03    -1.557452e-02     1.566789e-02
    1.299110e+01     6.447747e+00    -2.279785e-03    -9.247517e-03     9.524389e-03
    3.091244e+00     3.893274e+00    -1.007136e-03    -6.927720e-04     1.222398e-03
    6.994798e+00     5.051754e+00    -1.859163e-03    -2.731136e-03     3.303875e-03
    2.244737e+01     8.484899e+00    -4.761500e-04    -2.926430e-02     2.926817e-02
    1.887399e+01     8.129344e+00    -6.918248e-04    -2.013706e-02     2.014894e-02
    2.671577e+01     9.650687e+00     2.473852e-03    -4.291200e-02     4.298325e-02
    8.967052e+00     5.581232e+00    -2.077281e-03    -4.395324e-03     4.861478e-03
    1.488299e+01     6.832362e+00    -2.226978e-03    -1.223889e-02     1.243985e-02
    3.063715e+01     1.014865e+01     4.016034e-03    -5.841154e-02     5.854944e-02
    1.098164e+01     6.073707e+00    -2.180449e-03    -6.571622e-03     6.923913e-03
    4.987256e+00     4.482986e+00    -1.488993e-03    -1.485960e-03     2.103611e-03
    4.188126e+01     1.338772e+01     2.269265e-02    -1.207482e-01     1.228621e-01
    3.633405e+00     7.496082e+00    -1.090254e-04    -6.505912e-04     6.596632e-04
    1.679947e+01     9.609868e+00     2.418428e-03    -1.571572e-02     1.590071e-02
    1.873426e+01     1.012935e+01     3.667871e-03    -1.981894e-02     2.015548e-02
    1.465109e+01     9.902547e+00     2.719977e-03    -1.180763e-02     1.211686e-02
    2.067447e+01     9.703000e+00     2.810618e-03    -2.446574e-02     2.462665e-02
    1.270157e+01     9.856370e+00     2.374754e-03    -8.785533e-03     9.100827e-03
    3.220810e+01     1.040307e+01     4.994712e-03    -6.547589e-02     6.566612e-02
    1.069307e+01     9.770116e+00     1.959154e-03    -6.172813e-03     6.476257e-03
    8.719399e+00     9.885795e+00     1.742560e-03    -4.085357e-03     4.441470e-03
    6.842737e+00     1.005251e+01     1.503443e-03    -2.512720e-03     2.928157e-03
    7.383555e+00     6.973038e+00    -6.832276e-04    -2.904068e-03     2.983356e-03
    9.448546e+00     7.842679e+00    -1.412047e-04    -4.768742e-03     4.770832e-03
    1.175730e+01     8.052114e+00    -3.894242e-05    -7.466233e-03     7.466335e-03
    1.372309e+01     8.254942e+00     1.173575e-04    -1.028165e-02     1.028232e-02
    1.535341e+01     8.400295e+00     2.399852e-04    -1.299840e-02     1.300062e-02
    2.253589e+01     1.013973e+01     4.039931e-03    -2.949984e-02     2.977518e-02
    5.359646e+00     6.350160e+00    -7.595327e-04    -1.541612e-03     1.718563e-03
    5.186727e+00     1.021778e+01     1.228831e-03    -1.440802e-03     1.893657e-03
    5.676724e+00     8.442054e+00     3.184050e-04    -1.671607e-03     1.701661e-03
    3.407460e+00     5.613091e+00    -6.629099e-04    -6.571569e-04     9.334370e-04
    7.614192e+00     8.639215e+00     5.479057e-04    -3.066514e-03     3.115078e-03
      58       26       25
     118       59       64
      60        1       28
     142      100       61
      61        5       60
      62        6       61
      63        7       62
     118       98       97
      65       10       59
      66       11       65
      67       12       66
      68       13       67
      69       14       68
      70       15       69
      71       16       70
      72       17       71
      73       18       72
      74       19       73
      75       20       74
      76       21       75
      77       22       76
      78       23       77
     103      101       54
     162      143      103
      50       27        3
      80       27       50
      57       29        4
     104       29       57
     115      104      102
     115      112       82
     116       83      112
     117       84      116
     113       86       85
     119       86      113
     114       88       87
     144      130      135
     108       90       89
     121       90      108
     109       92       91
     122       92      109
     110       94       93
     123      111       95
     111       96       95
      97       45       96
     124       97       96
     125      100       99
     142       61       80
      80       61       60
      51        2       26
      58       51       26
     106      105       52
     132      105      106
     103       54       53
     102       55      101
     104       57       56
     106       51       58
      79       25       24
      59       10        9
      64        9        8
      60        5        1
      80       28       27
     100       48       99
      61        6        5
      99       47       98
      62        7        6
     126      125       99
      63        8        7
      64       59        9
      64        8       63
      95       43       94
      65       11       10
      94       42       93
      66       12       11
      93       41       92
      67       13       12
      92       40       91
      68       14       13
      91       39       90
      69       15       14
      90       38       89
      70       16       15
      89       37       88
      71       17       16
      88       36       87
      72       18       17
      87       35       86
      73       19       18
      86       34       85
      74       20       19
      85       33       84
      75       21       20
      84       32       83
      76       22       21
      83       31       82
      77       23       22
      82       30       81
      78       24       23
      79       58       25
      79       24       78
      80       60       28
     142       50       49
      81       30       29
     107      102      101
     161      143      159
      82       31       30
     152      151      116
      83       32       31
     140       75      131
      84       33       32
     119      114       87
      85       34       33
     138       73      130
      86       35       34
     145      144      135
      87       36       35
     135       71      128
      88       37       36
     158      147      134
      89       38       37
     134       69      127
      90       39       38
     136      122      127
      91       40       39
     136       67      129
      92       41       40
     139      123      129
      93       42       41
     149      139       65
      94       43       42
     149      111      139
      95       44       43
      96       45       44
      96       44       95
     126      118       64
      97       46       45
      98       47       46
      98       46       97
     126       99       98
      99       48       47
     100       62       61
     100       49       48
     101       55       54
     143      101      103
     115      102      107
     102       56       55
     105      103       53
     141       78      133
     104       81       29
     104       56      102
     105       53       52
     132       58       79
     106       52       51
     132      106       58
     163      161      153
     160      115      107
     120       89       88
     135      130       72
     121      109       91
     127      122      109
     122      110       93
     139      129       66
     123       95       94
     149      124      111
     137      133       77
     112       83       82
     117       85       84
     150      148      113
     119       87       86
     146      144      114
     115       82       81
     115       81      104
     163      153      154
     116       84       83
     140      137       76
     117      113       85
     124      118       97
     126       64       63
     148      146      119
     138      131       74
     120      108       89
     120       88      114
     121       91       90
     147      128      134
     122       93       92
     134      128       70
     123       94      110
     129      123      110
     124       96      111
     124       59      118
     125       63       62
     125       62      100
     126       98      118
     126       63      125
     127       69       68
     136       68       67
     128       71       70
     134       70       69
     136      129      110
     129       67       66
     130       73       72
     135       72       71
     131       75       74
     138       74       73
     141       79       78
     162      105      132
     133       78       77
     137       77       76
     158      127      109
     158      134      127
     147      145      135
     147      135      128
     136      110      122
     136      127       68
     140       76       75
     151      150      117
     157      130      144
     156      146      148
     139       66       65
     139      111      123
     155      148      150
     154      150      151
     159      141      133
     141      132       79
     142       80       50
     142       49      100
     143      107      101
     162      103      105
     144      120      114
     146      114      119
     145      108      120
     145      120      144
     148      119      113
     157      146      156
     147      121      108
     147      108      145
     150      113      117
     156      148      155
     149       65       59
     149       59      124
     151      117      116
     155      150      154
     152      116      112
     163      154      151
     160      152      112
     161      160      107
     153      133      137
     154      153      137
     154      137      140
     155      154      140
     155      140      131
     156      155      131
     156      131      138
     157      156      138
     157      138      130
     157      144      146
     158      109      121
     158      121      147
     162      159      143
     159      133      153
     160      112      115
     161      107      143
     161      159      153
     161      152      160
     162      132      141
     162      141      159
     163      151      152
     163      152      161
