TITLE="CPS4"
VARIABLES="X""Y""DispX""DispY""Mdisp"
ZONE T="flow-field",N=     169,E=     139,ET=QUADRILATERAL,F=FEPOINT
    4.500000e+01     1.000000e+01     1.698771e-04    -8.287861e-02     8.287878e-02
    0.000000e+00     0.000000e+00     0.000000e+00     0.000000e+00     0.000000e+00
    4.500000e+01     1.500000e+01     2.281132e-02    -8.478817e-02     8.780313e-02
    0.000000e+00     1.500000e+01     0.000000e+00     0.000000e+00     0.000000e+00
    4.312500e+01     9.583333e+00    -1.086930e-03    -7.474062e-02     7.474852e-02
    4.125000e+01     9.166667e+00    -1.931858e-03    -6.722778e-02     6.725553e-02
    3.937500e+01     8.750000e+00    -2.072151e-03    -6.012231e-02     6.015801e-02
    3.750000e+01     8.333333e+00    -2.891351e-03    -5.419340e-02     5.427047e-02
    3.562500e+01     7.916667e+00    -3.394975e-03    -4.837831e-02     4.849728e-02
    3.375000e+01     7.500000e+00    -3.642426e-03    -4.340838e-02     4.356093e-02
    3.187500e+01     7.083333e+00    -4.044615e-03    -3.889853e-02     3.910824e-02
    3.000000e+01     6.666667e+00    -4.465709e-03    -3.427198e-02     3.456170e-02
    2.812500e+01     6.250000e+00    -4.753081e-03    -3.006109e-02     3.043454e-02
    2.625000e+01     5.833333e+00    -4.951239e-03    -2.612057e-02     2.658569e-02
    2.437500e+01     5.416667e+00    -5.110579e-03    -2.251786e-02     2.309052e-02
    2.250000e+01     5.000000e+00    -5.191765e-03    -1.916603e-02     1.985677e-02
    2.062500e+01     4.583333e+00    -5.146747e-03    -1.606753e-02     1.687171e-02
    1.875000e+01     4.166667e+00    -4.990122e-03    -1.328451e-02     1.419083e-02
    1.687500e+01     3.750000e+00    -4.742217e-03    -1.079897e-02     1.179433e-02
    1.500000e+01     3.333333e+00    -4.402359e-03    -8.601045e-03     9.662233e-03
    1.312500e+01     2.916667e+00    -3.999764e-03    -6.670768e-03     7.777999e-03
    1.125000e+01     2.500000e+00    -3.562440e-03    -5.056681e-03     6.185548e-03
    9.375000e+00     2.083333e+00    -3.066283e-03    -3.698455e-03     4.804234e-03
    7.500000e+00     1.666667e+00    -2.513926e-03    -2.560654e-03     3.588422e-03
    5.625000e+00     1.250000e+00    -1.903211e-03    -1.655400e-03     2.522412e-03
    3.750000e+00     8.333333e-01    -1.263011e-03    -9.843824e-04     1.601314e-03
    1.875000e+00     4.166667e-01    -6.296917e-04    -5.047837e-04     8.070429e-04
    4.500000e+01     1.333333e+01     1.384211e-02    -8.345147e-02     8.459168e-02
    4.500000e+01     1.166667e+01     7.171071e-03    -8.276049e-02     8.307059e-02
    1.956522e+00     1.500000e+01     1.083536e-03    -5.662549e-04     1.222577e-03
    3.913044e+00     1.500000e+01     2.066063e-03    -1.125515e-03     2.352744e-03
    5.869565e+00     1.500000e+01     3.020122e-03    -1.898017e-03     3.567016e-03
    7.826087e+00     1.500000e+01     3.967571e-03    -2.907488e-03     4.918852e-03
    9.782609e+00     1.500000e+01     4.912174e-03    -4.171509e-03     6.444450e-03
    1.173913e+01     1.500000e+01     5.855898e-03    -5.707746e-03     8.177402e-03
    1.369565e+01     1.500000e+01     6.803124e-03    -7.522999e-03     1.014288e-02
    1.565217e+01     1.500000e+01     7.732608e-03    -9.618048e-03     1.234099e-02
    1.760870e+01     1.500000e+01     8.651806e-03    -1.202317e-02     1.481251e-02
    1.956522e+01     1.500000e+01     9.590101e-03    -1.474335e-02     1.758796e-02
    2.152174e+01     1.500000e+01     1.052253e-02    -1.774542e-02     2.063065e-02
    2.347826e+01     1.500000e+01     1.140162e-02    -2.107243e-02     2.395922e-02
    2.543478e+01     1.500000e+01     1.220723e-02    -2.469526e-02     2.754763e-02
    2.739130e+01     1.500000e+01     1.298887e-02    -2.870896e-02     3.151055e-02
    2.934783e+01     1.500000e+01     1.371912e-02    -3.306878e-02     3.580165e-02
    3.130435e+01     1.500000e+01     1.425205e-02    -3.739590e-02     4.001967e-02
    3.326087e+01     1.500000e+01     1.500910e-02    -4.189171e-02     4.449931e-02
    3.521739e+01     1.500000e+01     1.630326e-02    -4.731605e-02     5.004603e-02
    3.717391e+01     1.500000e+01     1.742653e-02    -5.330954e-02     5.608557e-02
    3.913044e+01     1.500000e+01     1.837249e-02    -5.945487e-02     6.222885e-02
    4.108696e+01     1.500000e+01     1.959514e-02    -6.671305e-02     6.953129e-02
    4.304348e+01     1.500000e+01     2.099926e-02    -7.455097e-02     7.745202e-02
    0.000000e+00     1.875000e+00     0.000000e+00     0.000000e+00     0.000000e+00
    0.000000e+00     3.750000e+00     0.000000e+00     0.000000e+00     0.000000e+00
    0.000000e+00     5.625000e+00     0.000000e+00     0.000000e+00     0.000000e+00
    0.000000e+00     7.500000e+00     0.000000e+00     0.000000e+00     0.000000e+00
    0.000000e+00     9.375000e+00     0.000000e+00     0.000000e+00     0.000000e+00
    0.000000e+00     1.125000e+01     0.000000e+00     0.000000e+00     0.000000e+00
    0.000000e+00     1.312500e+01     0.000000e+00     0.000000e+00     0.000000e+00
    1.794310e+00     2.184502e+00    -4.797180e-04    -3.314517e-04     5.830862e-04
    2.964970e+01     8.427690e+00    -5.802255e-04    -3.335441e-02     3.335946e-02
    4.299666e+01     1.141693e+01     6.116590e-03    -7.426384e-02     7.451530e-02
    4.099965e+01     1.118369e+01     5.414261e-03    -6.592732e-02     6.614926e-02
    3.878622e+01     1.100674e+01     4.803212e-03    -5.832073e-02     5.851819e-02
    3.683096e+01     1.001982e+01     2.361047e-03    -5.199560e-02     5.204917e-02
    3.507852e+01     9.435946e+00     9.871369e-04    -4.661674e-02     4.662719e-02
    3.334716e+01     8.938717e+00    -7.611475e-05    -4.221790e-02     4.221797e-02
    3.158189e+01     8.750684e+00     6.885205e-05    -3.810387e-02     3.810393e-02
    2.767281e+01     8.061737e+00    -1.063471e-03    -2.898748e-02     2.900698e-02
    2.567941e+01     7.665231e+00    -1.468310e-03    -2.490325e-02     2.494650e-02
    2.375059e+01     7.104408e+00    -2.153641e-03    -2.129501e-02     2.140364e-02
    2.188352e+01     6.590966e+00    -2.588623e-03    -1.800263e-02     1.818779e-02
    2.005859e+01     6.114521e+00    -2.868576e-03    -1.506110e-02     1.533185e-02
    1.824385e+01     5.668630e+00    -3.001877e-03    -1.244602e-02     1.280292e-02
    1.640634e+01     5.266403e+00    -2.989427e-03    -1.009070e-02     1.052421e-02
    1.455091e+01     4.910530e+00    -2.851832e-03    -7.968464e-03     8.463413e-03
    1.268248e+01     4.543988e+00    -2.626732e-03    -6.134434e-03     6.673156e-03
    1.088846e+01     4.015477e+00    -2.532828e-03    -4.633702e-03     5.280759e-03
    9.074392e+00     3.558422e+00    -2.258753e-03    -3.372742e-03     4.059230e-03
    7.263906e+00     3.181690e+00    -1.892181e-03    -2.292983e-03     2.972898e-03
    5.443436e+00     2.841696e+00    -1.458131e-03    -1.432070e-03     2.043764e-03
    3.615929e+00     2.509539e+00    -9.847078e-04    -7.937116e-04     1.264764e-03
    4.298791e+01     1.321634e+01     1.320125e-02    -7.421543e-02     7.538039e-02
    5.735865e+00     1.318942e+01     2.163057e-03    -1.605893e-03     2.694013e-03
    7.691496e+00     1.316475e+01     2.865580e-03    -2.600310e-03     3.869517e-03
    9.655551e+00     1.313420e+01     3.540605e-03    -3.848324e-03     5.229291e-03
    1.162446e+01     1.311240e+01     4.206657e-03    -5.378954e-03     6.828551e-03
    1.359999e+01     1.312675e+01     4.909137e-03    -7.194283e-03     8.709612e-03
    1.561597e+01     1.310524e+01     5.592131e-03    -9.345766e-03     1.089106e-02
    1.766987e+01     1.304731e+01     6.129895e-03    -1.190403e-02     1.338960e-02
    1.970092e+01     1.316786e+01     6.985116e-03    -1.469014e-02     1.626628e-02
    2.166103e+01     1.330126e+01     7.827375e-03    -1.777260e-02     1.941991e-02
    2.357789e+01     1.336632e+01     8.513201e-03    -2.104653e-02     2.270311e-02
    2.543720e+01     1.334052e+01     8.995999e-03    -2.452410e-02     2.612201e-02
    2.730877e+01     1.333088e+01     9.456368e-03    -2.838389e-02     2.991769e-02
    2.917924e+01     1.335153e+01     9.947050e-03    -3.250505e-02     3.399297e-02
    3.108831e+01     1.326555e+01     1.031517e-02    -3.693880e-02     3.835203e-02
    3.317444e+01     1.269773e+01     9.067718e-03    -4.132519e-02     4.230833e-02
    3.540240e+01     1.318844e+01     1.104873e-02    -4.766235e-02     4.892621e-02
    3.731425e+01     1.336413e+01     1.227532e-02    -5.345768e-02     5.484895e-02
    3.911937e+01     1.317672e+01     1.204223e-02    -5.922372e-02     6.043562e-02
    4.102353e+01     1.313921e+01     1.248980e-02    -6.626109e-02     6.742794e-02
    1.750054e+00     7.661239e+00     8.690358e-06    -1.233722e-04     1.236779e-04
    1.783321e+00     9.496646e+00     2.014769e-04    -1.286526e-04     2.390490e-04
    1.830570e+00     1.133749e+01     4.207490e-04    -1.785534e-04     4.570678e-04
    1.887708e+00     1.317644e+01     6.758702e-04    -2.991899e-04     7.391313e-04
    7.511290e+00     1.138141e+01     1.842893e-03    -2.345780e-03     2.983108e-03
    3.802671e+00     1.319725e+01     1.431987e-03    -8.535544e-04     1.667076e-03
    8.778385e+00     4.992669e+00    -1.471520e-03    -3.091652e-03     3.423986e-03
    9.486711e+00     1.130408e+01     2.251604e-03    -3.580004e-03     4.229202e-03
    1.151574e+01     1.122438e+01     2.596774e-03    -5.133956e-03     5.753324e-03
    1.353607e+01     1.133673e+01     3.144648e-03    -6.945648e-03     7.624358e-03
    1.553444e+01     1.138053e+01     3.576462e-03    -9.166780e-03     9.839763e-03
    1.777489e+01     1.103492e+01     3.695816e-03    -1.184884e-02     1.241185e-02
    1.997974e+01     1.143135e+01     4.564849e-03    -1.491068e-02     1.559379e-02
    2.187753e+01     1.169166e+01     5.313861e-03    -1.801809e-02     1.878533e-02
    2.367459e+01     1.180855e+01     5.854778e-03    -2.117350e-02     2.196806e-02
    2.539409e+01     1.160589e+01     5.652405e-03    -2.425658e-02     2.490646e-02
    2.725890e+01     1.158045e+01     5.965965e-03    -2.818456e-02     2.880907e-02
    2.909967e+01     1.170038e+01     6.498650e-03    -3.210732e-02     3.275840e-02
    3.308958e+01     1.019405e+01     3.158965e-03    -4.137793e-02     4.149834e-02
    3.432401e+01     1.098724e+01     5.210679e-03    -4.464803e-02     4.495106e-02
    3.597292e+01     1.152557e+01     6.493917e-03    -4.915994e-02     4.958700e-02
    3.534730e+00     4.245103e+00    -6.633785e-04    -6.422313e-04     9.233267e-04
    3.533909e+00     7.805951e+00     3.704927e-05    -5.153442e-04     5.166743e-04
    1.752353e+00     3.991142e+00    -3.300372e-04    -2.211991e-04     3.973080e-04
    3.063583e+01     1.189170e+01     6.955747e-03    -3.578630e-02     3.645603e-02
    5.584056e+00     1.141128e+01     1.380569e-03    -1.374719e-03     1.948287e-03
    1.740186e+00     5.823022e+00    -1.665686e-04    -1.545960e-04     2.272554e-04
    5.315506e+00     4.483341e+00    -9.746809e-04    -1.261795e-03     1.594406e-03
    1.044330e+01     5.415933e+00    -1.562393e-03    -4.250968e-03     4.528996e-03
    1.209527e+01     6.341819e+00    -1.160545e-03    -5.490714e-03     5.612023e-03
    1.417518e+01     6.489101e+00    -1.341556e-03    -7.467420e-03     7.586972e-03
    1.598181e+01     6.784078e+00    -1.299079e-03    -9.533109e-03     9.621215e-03
    1.775220e+01     7.165132e+00    -1.104711e-03    -1.172055e-02     1.177250e-02
    1.948220e+01     7.641950e+00    -6.940947e-04    -1.411553e-02     1.413259e-02
    2.124850e+01     8.129717e+00    -1.457113e-04    -1.688505e-02     1.688568e-02
    2.306348e+01     8.653822e+00     5.830480e-04    -2.001451e-02     2.002300e-02
    2.504544e+01     9.594961e+00     2.017961e-03    -2.369294e-02     2.377872e-02
    2.733623e+01     9.819654e+00     2.461363e-03    -2.817409e-02     2.828140e-02
    2.937971e+01     1.011815e+01     3.217731e-03    -3.295274e-02     3.310947e-02
    3.732644e+01     1.200900e+01     8.068869e-03    -5.347097e-02     5.407634e-02
    7.073674e+00     4.721975e+00    -1.245382e-03    -2.080990e-03     2.425180e-03
    3.599501e+00     9.594983e+00     4.370888e-04    -5.468557e-04     7.000699e-04
    3.693140e+00     1.139530e+01     8.929981e-04    -6.539749e-04     1.106855e-03
    3.508879e+00     6.013185e+00    -3.260422e-04    -5.482604e-04     6.378816e-04
    5.438868e+00     9.661701e+00     6.892845e-04    -1.220064e-03     1.401310e-03
    5.322962e+00     7.922360e+00     8.105583e-05    -1.146958e-03     1.149818e-03
    1.251935e+01     7.850429e+00    -1.707667e-05    -5.795519e-03     5.795544e-03
    1.397124e+01     8.076047e+00     1.438128e-04    -7.331802e-03     7.333213e-03
    1.563836e+01     8.295713e+00     3.234869e-04    -9.113785e-03     9.119524e-03
    1.882690e+01     9.229665e+00     1.472905e-03    -1.310224e-02     1.318477e-02
    2.230565e+01     1.010818e+01     2.819456e-03    -1.863277e-02     1.884488e-02
    2.057154e+01     9.729820e+00     2.208959e-03    -1.580782e-02     1.596141e-02
    1.052909e+01     7.531339e+00    -1.795805e-04    -4.285996e-03     4.289756e-03
    5.273163e+00     6.186311e+00    -4.680777e-04    -1.163287e-03     1.253927e-03
    7.000886e+00     6.334290e+00    -5.938843e-04    -1.970737e-03     2.058276e-03
    9.895094e+00     6.453166e+00    -8.273489e-04    -3.834072e-03     3.922323e-03
    3.157793e+01     1.071323e+01     4.625112e-03    -3.785521e-02     3.813670e-02
    1.540919e+01     9.835833e+00     1.948766e-03    -8.874853e-03     9.086292e-03
    1.361283e+01     9.674332e+00     1.615944e-03    -6.877011e-03     7.064316e-03
    1.145315e+01     9.200227e+00     1.041409e-03    -4.972961e-03     5.080834e-03
    9.244932e+00     9.562926e+00     1.077178e-03    -3.370161e-03     3.538121e-03
    7.306239e+00     9.669086e+00     9.248099e-04    -2.141885e-03     2.333012e-03
    8.851148e+00     7.933048e+00     8.312801e-05    -3.070387e-03     3.071512e-03
    2.365624e+01     1.054980e+01     3.669801e-03    -2.110208e-02     2.141881e-02
    7.105666e+00     7.986763e+00     1.162495e-04    -2.001793e-03     2.005165e-03
    1.729673e+01     8.612160e+00     6.386188e-04    -1.117620e-02     1.119443e-02
    1.685167e+01     9.810344e+00     2.058632e-03    -1.063138e-02     1.082886e-02
    8.620042e+00     6.430648e+00    -7.028632e-04    -2.904889e-03     2.988712e-03
      59      27      26      81
      93      94      43      42
       1      29      61       5
      62     101     100      63
       5      61      62       6
       6      62      63       7
       7      63      64       8
       8      64      65       9
       9      65      66      10
      12      60      68      13
      13      68      69      14
      14      69      70      15
      15      70      71      16
      72      17      16      71
      73      18      17      72
      74      19      18      73
      75      20      19      74
      76      21      20      75
      77      22      21      76
      78      23      22      77
      79      24      23      78
      24      79      80      25
      28       3      51      82
      30       4      58     105
     105      58      57     104
      30     105     107      31
     131     130      77      76
      84     106     109      85
      85     109     110      86
      86     110     111      87
      87     111     112      88
      88     112     113      89
      89     113     114      90
      90     114     115      91
      91     115     116      92
      90      91      40      39
      92     116     117      93
      93     117     118      94
      94      95      44      43
      94     118     119      95
      97      96     126     158
      99      98     122     141
     101      62      61      82
      52       2      27      59
     128     125     123     145
     128      54      53     125
     129     155     145     123
      56     103     104      57
      52      59     125      53
      81      26      25      80
      60      12      11      67
      67      11      10      66
      29      28      82      61
      99     100      49      48
      98      99      48      47
      98      47      46      97
      96      97      46      45
      95      96      45      44
      95     119     126      96
      92      93      42      41
      91      92      41      40
      89      90      39      38
      88      89      38      37
      87      88      37      36
      86      87      36      35
      35      34      85      86
      34      33      84      85
      33      32      83      84
     144     143     146     127
     127     146     163     106
     155     147     124     145
      51      50     101      82
      32      31     107      83
      55     102     103      56
     148     161     154     131
     154     157     130     131
     132     133     150     149
     149     148     131     132
     151     167     134     135
     153     152     115     114
     165     152     137     138
     165     138     117     116
     117     138     139     118
     118     139     140     119
      67      66     120     158
     120      66      65     121
     122     121      65      64
     141     122      64      63
     100      99     141      63
      49     100     101      50
     102      55      54     128
     142      79      78     108
     124     143     103     102
     143     144     104     103
     105     104     144     107
      83     127     106      84
     130     108      78      77
     106     163     162     109
     132     131      76      75
     133     132      75      74
     134     133      74      73
     135     134      73      72
     136     135      72      71
     137     136      71      70
     137      70      69     138
     139     138      69      68
     158     126     119     140
      98      97     121     122
      59      81     123     125
      80     129     123      81
     145     124     102     128
     120     121      97     158
     107     144     127      83
     129      80      79     142
     110     161     160     111
     159     160     149     150
     159     150     167     168
     168     113     112     159
     151     153     114     113
     116     115     152     165
     140     139      68      60
     158     140      60      67
     166     163     146     147
     143     124     147     146
     142     156     155     129
     149     160     161     148
     133     134     167     150
     135     136     153     151
     136     137     152     153
     109     162     161     110
     142     108     169     156
     155     156     166     147
     108     130     157     169
     154     161     162     164
     157     154     164     169
     159     112     111     160
     163     166     164     162
     164     166     156     169
     168     167     151     113
