TITLE="test case governed by poisson equation"
VARIABLES="x" "y" "u" "v" "sigmax"  "sigmay" "sigmaxy"
ZONE T="flow-field", N=      156,E=     250,ET=TRIANGLE, F=FEPOINT
    0.000000e+00    0.000000e+00   -6.033287e-11   -2.304442e-14   -2.734076e+06   -8.205020e+05   -4.842490e+05
    2.000000e-02    0.000000e+00   -2.488529e-07   -1.259479e-07   -2.230072e+06   -3.374625e+05   -2.195686e+05
    4.000000e-02    0.000000e+00   -4.967025e-07   -3.087902e-07   -2.139320e+06   -1.049406e+05   -1.400676e+05
    6.000000e-02    0.000000e+00   -7.346908e-07   -5.814211e-07   -2.043889e+06   -6.297179e+04   -1.212403e+05
    8.000000e-02    0.000000e+00   -9.618581e-07   -9.455560e-07   -1.947565e+06   -5.278470e+04   -1.147175e+05
    1.000000e-01    0.000000e+00   -1.178123e-06   -1.398022e-06   -1.852564e+06   -4.893753e+04   -1.104710e+05
    1.200000e-01    0.000000e+00   -1.383621e-06   -1.934716e-06   -1.759023e+06   -4.618472e+04   -1.068880e+05
    1.400000e-01    0.000000e+00   -1.578479e-06   -2.551434e-06   -1.666365e+06   -4.363523e+04   -1.037260e+05
    1.600000e-01    0.000000e+00   -1.762766e-06   -3.243991e-06   -1.574117e+06   -4.119061e+04   -1.008300e+05
    1.800000e-01    0.000000e+00   -1.936507e-06   -4.008204e-06   -1.482022e+06   -3.881819e+04   -9.806975e+04
    2.000000e-01    0.000000e+00   -2.099709e-06   -4.839878e-06   -1.389967e+06   -3.648502e+04   -9.536381e+04
    2.200000e-01    0.000000e+00   -2.252372e-06   -5.734810e-06   -1.297912e+06   -3.416790e+04   -9.267286e+04
    2.400000e-01    0.000000e+00   -2.394494e-06   -6.688787e-06   -1.205846e+06   -3.185499e+04   -8.998194e+04
    2.600000e-01    0.000000e+00   -2.526073e-06   -7.697596e-06   -1.113771e+06   -2.954203e+04   -8.728690e+04
    2.800000e-01    0.000000e+00   -2.647108e-06   -8.757017e-06   -1.021691e+06   -2.722874e+04   -8.458630e+04
    3.000000e-01    0.000000e+00   -2.757598e-06   -9.862832e-06   -9.296173e+05   -2.491728e+04   -8.187640e+04
    3.200000e-01    0.000000e+00   -2.857545e-06   -1.101082e-05   -8.375722e+05   -2.261208e+04   -7.914666e+04
    3.400000e-01    0.000000e+00   -2.946955e-06   -1.219675e-05   -7.456080e+05   -2.032065e+04   -7.637425e+04
    3.600000e-01    0.000000e+00   -3.025843e-06   -1.341641e-05   -6.538306e+05   -1.805328e+04   -7.351879e+04
    3.800000e-01    0.000000e+00   -3.094242e-06   -1.466555e-05   -5.624290e+05   -1.581782e+04   -7.052563e+04
    4.000000e-01    0.000000e+00   -3.152219e-06   -1.593998e-05   -4.716767e+05   -1.359986e+04   -6.736237e+04
    4.200000e-01    0.000000e+00   -3.199875e-06   -1.723553e-05   -3.818188e+05   -1.131580e+04   -6.414086e+04
    4.400000e-01    0.000000e+00   -3.237331e-06   -1.854817e-05   -2.926919e+05   -8.764152e+03   -6.136923e+04
    4.600000e-01    0.000000e+00   -3.264607e-06   -1.987410e-05   -2.032397e+05   -5.945494e+03   -5.996464e+04
    4.800000e-01    0.000000e+00   -3.281426e-06   -2.120940e-05   -1.144356e+05   -6.350219e+03   -5.749280e+04
    5.000000e-01    0.000000e+00   -3.287781e-06   -2.254697e-05   -6.076994e+04   -2.615358e+04   -5.769898e+04
    0.000000e+00    2.000000e-02   -1.715660e-11   -2.794434e-11   -1.897005e+06   -4.032577e+05   -2.197448e+05
    2.000000e-02    2.000000e-02   -1.420250e-07   -7.620009e-08   -1.489299e+06   -1.167440e+05   -8.544334e+04
    4.000000e-02    2.000000e-02   -2.885383e-07   -2.531358e-07   -1.450609e+06   -3.434053e+04   -9.373410e+04
    6.000000e-02    2.000000e-02   -4.308821e-07   -5.267191e-07   -1.388705e+06   -1.445731e+04   -9.403235e+04
    8.000000e-02    2.000000e-02   -5.669691e-07   -8.931843e-07   -1.323433e+06   -1.044400e+04   -9.234945e+04
    1.000000e-01    2.000000e-02   -6.965714e-07   -1.348183e-06   -1.259026e+06   -9.298963e+03   -9.060327e+04
    1.200000e-01    2.000000e-02   -8.197651e-07   -1.887407e-06   -1.195310e+06   -8.549923e+03   -8.947460e+04
    1.400000e-01    2.000000e-02   -9.366024e-07   -2.506647e-06   -1.131883e+06   -8.034452e+03   -8.888678e+04
    1.600000e-01    2.000000e-02   -1.047103e-06   -3.201728e-06   -1.068559e+06   -7.739095e+03   -8.862484e+04
    1.800000e-01    2.000000e-02   -1.151272e-06   -3.968467e-06   -1.005270e+06   -7.597521e+03   -8.852628e+04
    2.000000e-01    2.000000e-02   -1.249113e-06   -4.802670e-06   -9.419925e+05   -7.541218e+03   -8.849852e+04
    2.200000e-01    2.000000e-02   -1.340627e-06   -5.700132e-06   -8.787200e+05   -7.524359e+03   -8.849673e+04
    2.400000e-01    2.000000e-02   -1.425813e-06   -6.656641e-06   -8.154496e+05   -7.522823e+03   -8.850195e+04
    2.600000e-01    2.000000e-02   -1.504671e-06   -7.667980e-06   -7.521806e+05   -7.526599e+03   -8.850674e+04
    2.800000e-01    2.000000e-02   -1.577203e-06   -8.729933e-06   -6.889143e+05   -7.533809e+03   -8.850647e+04
    3.000000e-01    2.000000e-02   -1.643409e-06   -9.838279e-06   -6.256553e+05   -7.547877e+03   -8.849309e+04
    3.200000e-01    2.000000e-02   -1.703288e-06   -1.098880e-05   -5.624160e+05   -7.577118e+03   -8.844820e+04
    3.400000e-01    2.000000e-02   -1.756844e-06   -1.217726e-05   -4.992234e+05   -7.634876e+03   -8.833392e+04
    3.600000e-01    2.000000e-02   -1.804081e-06   -1.339944e-05   -4.361321e+05   -7.736232e+03   -8.808290e+04
    3.800000e-01    2.000000e-02   -1.845011e-06   -1.465110e-05   -3.732413e+05   -7.882107e+03   -8.759860e+04
    4.000000e-01    2.000000e-02   -1.879657e-06   -1.592802e-05   -3.107126e+05   -8.013565e+03   -8.679912e+04
    4.200000e-01    2.000000e-02   -1.908072e-06   -1.722602e-05   -2.487702e+05   -7.923277e+03   -8.577679e+04
    4.400000e-01    2.000000e-02   -1.930359e-06   -1.854107e-05   -1.876555e+05   -7.237624e+03   -8.515076e+04
    4.600000e-01    2.000000e-02   -1.946701e-06   -1.986940e-05   -1.275347e+05   -6.502802e+03   -8.622976e+04
    4.800000e-01    2.000000e-02   -1.957286e-06   -2.120756e-05   -6.903149e+04   -1.572697e+04   -8.636404e+04
    5.000000e-01    2.000000e-02   -1.961515e-06   -2.255040e-05   -4.119479e+04   -9.803888e+04   -1.154832e+05
    0.000000e+00    4.000000e-02    3.111460e-12    5.269120e-12   -8.458150e+05   -1.821114e+05   -1.171637e+05
    2.000000e-02    4.000000e-02   -4.767019e-08   -5.477804e-08   -5.018296e+05   -3.182840e+04   -7.742032e+04
    4.000000e-02    4.000000e-02   -9.615165e-08   -2.265997e-07   -4.759543e+05   -1.058198e+04   -1.262558e+05
    6.000000e-02    4.000000e-02   -1.427435e-07   -5.002288e-07   -4.519881e+05   -1.087275e+04   -1.350816e+05
    8.000000e-02    4.000000e-02   -1.872802e-07   -8.677448e-07   -4.324024e+05   -1.171339e+04   -1.339963e+05
    1.000000e-01    4.000000e-02   -2.299315e-07   -1.323874e-06   -4.130559e+05   -1.060854e+04   -1.323671e+05
    1.200000e-01    4.000000e-02   -2.706578e-07   -1.864251e-06   -3.930046e+05   -9.301616e+03   -1.314319e+05
    1.400000e-01    4.000000e-02   -3.093800e-07   -2.484684e-06   -3.723936e+05   -8.398381e+03   -1.309911e+05
    1.600000e-01    4.000000e-02   -3.460414e-07   -3.180992e-06   -3.514810e+05   -7.898549e+03   -1.308014e+05
    1.800000e-01    4.000000e-02   -3.806120e-07   -3.948980e-06   -3.304366e+05   -7.660853e+03   -1.307255e+05
    2.000000e-01    4.000000e-02   -4.130783e-07   -4.784443e-06   -3.093460e+05   -7.562925e+03   -1.306980e+05
    2.200000e-01    4.000000e-02   -4.434356e-07   -5.683169e-06   -2.882454e+05   -7.529542e+03   -1.306897e+05
    2.400000e-01    4.000000e-02   -4.716830e-07   -6.640943e-06   -2.671467e+05   -7.522549e+03   -1.306883e+05
    2.600000e-01    4.000000e-02   -4.978204e-07   -7.653548e-06   -2.460523e+05   -7.526763e+03   -1.306883e+05
    2.800000e-01    4.000000e-02   -5.218481e-07   -8.716767e-06   -2.249599e+05   -7.541100e+03   -1.306852e+05
    3.000000e-01    4.000000e-02   -5.437656e-07   -9.826381e-06   -2.038638e+05   -7.575812e+03   -1.306714e+05
    3.200000e-01    4.000000e-02   -5.635704e-07   -1.097817e-05   -1.827509e+05   -7.654251e+03   -1.306296e+05
    3.400000e-01    4.000000e-02   -5.812565e-07   -1.216791e-05   -1.615929e+05   -7.815518e+03   -1.305239e+05
    3.600000e-01    4.000000e-02   -5.968109e-07   -1.339138e-05   -1.403351e+05   -8.108384e+03   -1.302840e+05
    3.800000e-01    4.000000e-02   -6.102095e-07   -1.464434e-05   -1.188880e+05   -8.552270e+03   -1.297870e+05
    4.000000e-01    4.000000e-02   -6.214156e-07   -1.592255e-05   -9.714375e+04   -9.015809e+03   -1.288474e+05
    4.200000e-01    4.000000e-02   -6.303918e-07   -1.722180e-05   -7.507089e+04   -8.957396e+03   -1.272662e+05
    4.400000e-01    4.000000e-02   -6.371481e-07   -1.853792e-05   -5.289907e+04   -7.218391e+03   -1.251412e+05
    4.600000e-01    4.000000e-02   -6.418262e-07   -1.986707e-05   -3.056181e+04   -4.100196e+03   -1.246334e+05
    4.800000e-01    4.000000e-02   -6.444309e-07   -2.120736e-05    3.521069e+03   -2.581732e+04   -1.442356e+05
    5.000000e-01    4.000000e-02   -6.395077e-07   -2.257287e-05    4.113305e+04    6.840499e+04   -1.689945e+05
    0.000000e+00    6.000000e-02   -2.092424e-11    3.994708e-11    1.447197e+05    4.645356e+04   -9.171183e+04
    2.000000e-02    6.000000e-02    4.343327e-08   -5.386938e-08    4.827831e+05    8.005162e+04   -8.853982e+04
    4.000000e-02    6.000000e-02    9.225578e-08   -2.271740e-07    5.036171e+05    1.621296e+04   -1.290583e+05
    6.000000e-02    6.000000e-02    1.413641e-07   -5.017345e-07    4.813246e+05   -9.211768e+03   -1.303754e+05
    8.000000e-02    6.000000e-02    1.880094e-07   -8.691840e-07    4.552502e+05   -1.204125e+04   -1.298324e+05
    1.000000e-01    6.000000e-02    2.320345e-07   -1.325049e-06    4.311306e+05   -1.067076e+04   -1.299837e+05
    1.200000e-01    6.000000e-02    2.736401e-07   -1.865221e-06    4.086030e+05   -9.232849e+03   -1.302981e+05
    1.400000e-01    6.000000e-02    3.129832e-07   -2.485534e-06    3.869144e+05   -8.333477e+03   -1.305242e+05
    1.600000e-01    6.000000e-02    3.501500e-07   -3.181783e-06    3.656057e+05   -7.865292e+03   -1.306405e+05
    1.800000e-01    6.000000e-02    3.851818e-07   -3.949745e-06    3.444504e+05   -7.650108e+03   -1.306867e+05
    2.000000e-01    6.000000e-02    4.180960e-07   -4.785198e-06    3.233490e+05   -7.562455e+03   -1.306988e+05
    2.200000e-01    6.000000e-02    4.488993e-07   -5.683921e-06    3.022623e+05   -7.532023e+03   -1.306983e+05
    2.400000e-01    6.000000e-02    4.775937e-07   -6.641695e-06    2.811766e+05   -7.525170e+03   -1.306948e+05
    2.600000e-01    6.000000e-02    5.041794e-07   -7.654301e-06    2.600888e+05   -7.529849e+03   -1.306924e+05
    2.800000e-01    6.000000e-02    5.286566e-07   -8.717521e-06    2.390009e+05   -7.548107e+03   -1.306932e+05
    3.000000e-01    6.000000e-02    5.510261e-07   -9.827140e-06    2.179214e+05   -7.595523e+03   -1.306998e+05
    3.200000e-01    6.000000e-02    5.712910e-07   -1.097894e-05    1.968728e+05   -7.706113e+03   -1.307167e+05
    3.400000e-01    6.000000e-02    5.894600e-07   -1.216871e-05    1.759076e+05   -7.939413e+03   -1.307501e+05
    3.600000e-01    6.000000e-02    6.055538e-07   -1.339222e-05    1.551392e+05   -8.379675e+03   -1.308024e+05
    3.800000e-01    6.000000e-02    6.196161e-07   -1.464527e-05    1.347918e+05   -9.098419e+03   -1.308503e+05
    4.000000e-01    6.000000e-02    6.317323e-07   -1.592362e-05    1.152705e+05   -1.000893e+04   -1.307900e+05
    4.200000e-01    6.000000e-02    6.420543e-07   -1.722300e-05    9.725440e+04   -1.044772e+04   -1.303475e+05
    4.400000e-01    6.000000e-02    6.508251e-07   -1.853904e-05    8.186098e+04   -8.026488e+03   -1.291900e+05
    4.600000e-01    6.000000e-02    6.583764e-07   -1.986742e-05    7.097290e+04    6.104805e+03   -1.287195e+05
    4.800000e-01    6.000000e-02    6.647283e-07   -2.120421e-05    6.050103e+04    9.584757e+04   -1.379549e+05
    5.000000e-01    6.000000e-02    6.610653e-07   -2.253673e-05    3.184247e+04    1.845417e+05   -1.056545e+05
    0.000000e+00    8.000000e-02   -3.361917e-11    7.898975e-12    1.156743e+06    2.799037e+05   -1.358834e+05
    2.000000e-02    8.000000e-02    1.391550e-07   -7.390984e-08    1.532990e+06    1.594840e+05   -1.136620e+05
    4.000000e-02    8.000000e-02    2.891372e-07   -2.562882e-07    1.467691e+06    9.855582e+03   -8.225301e+04
    6.000000e-02    8.000000e-02    4.326195e-07   -5.310349e-07    1.399148e+06   -7.037411e+03   -7.998619e+04
    8.000000e-02    8.000000e-02    5.692476e-07   -8.970918e-07    1.334875e+06   -8.925201e+03   -8.315444e+04
    1.000000e-01    8.000000e-02    6.993116e-07   -1.351438e-06    1.271788e+06   -8.608538e+03   -8.578747e+04
    1.200000e-01    8.000000e-02    8.229600e-07   -1.890176e-06    1.208816e+06   -8.136925e+03   -8.729739e+04
    1.400000e-01    8.000000e-02    9.402504e-07   -2.509134e-06    1.145736e+06   -7.824069e+03   -8.803614e+04
    1.600000e-01    8.000000e-02    1.051203e-06   -3.204074e-06    1.082556e+06   -7.656328e+03   -8.835606e+04
    1.800000e-01    8.000000e-02    1.155824e-06   -3.970753e-06    1.019319e+06   -7.577257e+03   -8.847680e+04
    2.000000e-01    8.000000e-02    1.254117e-06   -4.804933e-06    9.560568e+05   -7.543937e+03   -8.851321e+04
    2.200000e-01    8.000000e-02    1.346082e-06   -5.702389e-06    8.927866e+05   -7.531553e+03   -8.851852e+04
    2.400000e-01    8.000000e-02    1.431720e-06   -6.658896e-06    8.295148e+05   -7.528233e+03   -8.851486e+04
    2.600000e-01    8.000000e-02    1.511031e-06   -7.670237e-06    7.662433e+05   -7.530608e+03   -8.851102e+04
    2.800000e-01    8.000000e-02    1.584014e-06   -8.732194e-06    7.029720e+05   -7.542490e+03   -8.851260e+04
    3.000000e-01    8.000000e-02    1.650670e-06   -9.840551e-06    6.397008e+05   -7.577281e+03   -8.852929e+04
    3.200000e-01    8.000000e-02    1.710999e-06   -1.099110e-05    5.764301e+05   -7.664581e+03   -8.858311e+04
    3.400000e-01    8.000000e-02    1.765002e-06   -1.217962e-05    5.131643e+05   -7.860798e+03   -8.872075e+04
    3.600000e-01    8.000000e-02    1.812680e-06   -1.340193e-05    4.499178e+05   -8.259615e+03   -8.903065e+04
    3.800000e-01    8.000000e-02    1.854042e-06   -1.465381e-05    3.867304e+05   -8.984128e+03   -8.965953e+04
    4.000000e-01    8.000000e-02    1.889105e-06   -1.593107e-05    3.236976e+05   -1.009434e+04   -9.080820e+04
    4.200000e-01    8.000000e-02    1.917909e-06   -1.722941e-05    2.610014e+05   -1.116267e+04   -9.265893e+04
    4.400000e-01    8.000000e-02    1.940505e-06   -1.854432e-05    1.987188e+05   -9.545394e+03   -9.511685e+04
    4.600000e-01    8.000000e-02    1.956788e-06   -1.987056e-05    1.347433e+05    5.600182e+03   -9.635011e+04
    4.800000e-01    8.000000e-02    1.965535e-06   -2.120055e-05    5.398567e+04    3.931247e+04   -7.891437e+04
    5.000000e-01    8.000000e-02    1.965805e-06   -2.252404e-05    2.404343e+04    5.364851e+04   -4.677009e+04
    0.000000e+00    1.000000e-01    1.310011e-11   -5.532535e-11    2.123319e+06    3.592060e+05   -1.508450e+05
    2.000000e-02    1.000000e-01    2.639359e-07   -1.294046e-07    2.220236e+06    1.040267e+05   -3.727087e+04
    4.000000e-02    1.000000e-01    5.067393e-07   -3.139120e-07    2.083554e+06    5.434637e+04    1.393329e+04
    6.000000e-02    1.000000e-01    7.406286e-07   -5.870033e-07    1.999779e+06    4.771165e+04    1.224989e+04
    8.000000e-02    1.000000e-01    9.657509e-07   -9.508217e-07    1.916287e+06    4.564641e+04    6.339080e+03
    1.000000e-01    1.000000e-01    1.181343e-06   -1.402750e-06    1.829082e+06    4.389842e+04    1.362836e+03
    1.200000e-01    1.000000e-01    1.386876e-06   -1.938999e-06    1.739323e+06    4.195343e+04   -2.554527e+03
    1.400000e-01    1.000000e-01    1.582073e-06   -2.555440e-06    1.648221e+06    3.983126e+04   -5.827047e+03
    1.600000e-01    1.000000e-01    1.766805e-06   -3.247852e-06    1.556499e+06    3.760460e+04   -8.770146e+03
    1.800000e-01    1.000000e-01    1.941017e-06   -4.012000e-06    1.464523e+06    3.532525e+04   -1.156243e+04
    2.000000e-01    1.000000e-01    2.104690e-06   -4.843649e-06    1.372458e+06    3.302220e+04   -1.429230e+04
    2.200000e-01    1.000000e-01    2.257818e-06   -5.738572e-06    1.280370e+06    3.070982e+04   -1.699907e+04
    2.400000e-01    1.000000e-01    2.400399e-06   -6.692549e-06    1.188281e+06    2.839435e+04   -1.969833e+04
    2.600000e-01    1.000000e-01    2.532436e-06   -7.701359e-06    1.096198e+06    2.607741e+04   -2.239592e+04
    2.800000e-01    1.000000e-01    2.653928e-06   -8.760785e-06    1.004120e+06    2.375659e+04   -2.509594e+04
    3.000000e-01    1.000000e-01    2.764878e-06   -9.866613e-06    9.120411e+05    2.142298e+04   -2.780801e+04
    3.200000e-01    1.000000e-01    2.865283e-06   -1.101463e-05    8.199381e+05    1.905457e+04   -3.055808e+04
    3.400000e-01    1.000000e-01    2.955142e-06   -1.220063e-05    7.277522e+05    1.660372e+04   -3.340845e+04
    3.600000e-01    1.000000e-01    3.034436e-06   -1.342042e-05    6.353428e+05    1.397866e+04   -3.649277e+04
    3.800000e-01    1.000000e-01    3.103125e-06   -1.466981e-05    5.424089e+05    1.103152e+04   -4.006693e+04
    4.000000e-01    1.000000e-01    3.161103e-06   -1.594458e-05    4.483643e+05    7.630153e+03   -4.454659e+04
    4.200000e-01    1.000000e-01    3.208143e-06   -1.724044e-05    3.521692e+05    4.154409e+03   -5.035857e+04
    4.400000e-01    1.000000e-01    3.243784e-06   -1.855270e-05    2.521539e+05    3.291054e+03   -5.683216e+04
    4.600000e-01    1.000000e-01    3.267210e-06   -1.987550e-05    1.464221e+05    8.994433e+03   -5.765436e+04
    4.800000e-01    1.000000e-01    3.278154e-06   -2.120115e-05    4.854122e+04    1.670171e+04   -3.942837e+04
    5.000000e-01    1.000000e-01    3.279999e-06   -2.252219e-05    2.635620e+04    2.635620e+04   -2.635620e+04
       1       2      27
       2      28      27
       2       3      28
       3      29      28
       3       4      29
       4      30      29
       4       5      30
       5      31      30
       5       6      31
       6      32      31
       6       7      32
       7      33      32
       7       8      33
       8      34      33
       8       9      34
       9      35      34
       9      10      35
      10      36      35
      10      11      36
      11      37      36
      11      12      37
      12      38      37
      12      13      38
      13      39      38
      13      14      39
      14      40      39
      14      15      40
      15      41      40
      15      16      41
      16      42      41
      16      17      42
      17      43      42
      17      18      43
      18      44      43
      18      19      44
      19      45      44
      19      20      45
      20      46      45
      20      21      46
      21      47      46
      21      22      47
      22      48      47
      22      23      48
      23      49      48
      23      24      49
      24      50      49
      24      25      50
      25      51      50
      25      26      51
      26      52      51
      27      28      53
      28      54      53
      28      29      54
      29      55      54
      29      30      55
      30      56      55
      30      31      56
      31      57      56
      31      32      57
      32      58      57
      32      33      58
      33      59      58
      33      34      59
      34      60      59
      34      35      60
      35      61      60
      35      36      61
      36      62      61
      36      37      62
      37      63      62
      37      38      63
      38      64      63
      38      39      64
      39      65      64
      39      40      65
      40      66      65
      40      41      66
      41      67      66
      41      42      67
      42      68      67
      42      43      68
      43      69      68
      43      44      69
      44      70      69
      44      45      70
      45      71      70
      45      46      71
      46      72      71
      46      47      72
      47      73      72
      47      48      73
      48      74      73
      48      49      74
      49      75      74
      49      50      75
      50      76      75
      50      51      76
      51      77      76
      51      52      77
      52      78      77
      53      54      79
      54      80      79
      54      55      80
      55      81      80
      55      56      81
      56      82      81
      56      57      82
      57      83      82
      57      58      83
      58      84      83
      58      59      84
      59      85      84
      59      60      85
      60      86      85
      60      61      86
      61      87      86
      61      62      87
      62      88      87
      62      63      88
      63      89      88
      63      64      89
      64      90      89
      64      65      90
      65      91      90
      65      66      91
      66      92      91
      66      67      92
      67      93      92
      67      68      93
      68      94      93
      68      69      94
      69      95      94
      69      70      95
      70      96      95
      70      71      96
      71      97      96
      71      72      97
      72      98      97
      72      73      98
      73      99      98
      73      74      99
      74     100      99
      74      75     100
      75     101     100
      75      76     101
      76     102     101
      76      77     102
      77     103     102
      77      78     103
      78     104     103
      79      80     105
      80     106     105
      80      81     106
      81     107     106
      81      82     107
      82     108     107
      82      83     108
      83     109     108
      83      84     109
      84     110     109
      84      85     110
      85     111     110
      85      86     111
      86     112     111
      86      87     112
      87     113     112
      87      88     113
      88     114     113
      88      89     114
      89     115     114
      89      90     115
      90     116     115
      90      91     116
      91     117     116
      91      92     117
      92     118     117
      92      93     118
      93     119     118
      93      94     119
      94     120     119
      94      95     120
      95     121     120
      95      96     121
      96     122     121
      96      97     122
      97     123     122
      97      98     123
      98     124     123
      98      99     124
      99     125     124
      99     100     125
     100     126     125
     100     101     126
     101     127     126
     101     102     127
     102     128     127
     102     103     128
     103     129     128
     103     104     129
     104     130     129
     105     106     131
     106     132     131
     106     107     132
     107     133     132
     107     108     133
     108     134     133
     108     109     134
     109     135     134
     109     110     135
     110     136     135
     110     111     136
     111     137     136
     111     112     137
     112     138     137
     112     113     138
     113     139     138
     113     114     139
     114     140     139
     114     115     140
     115     141     140
     115     116     141
     116     142     141
     116     117     142
     117     143     142
     117     118     143
     118     144     143
     118     119     144
     119     145     144
     119     120     145
     120     146     145
     120     121     146
     121     147     146
     121     122     147
     122     148     147
     122     123     148
     123     149     148
     123     124     149
     124     150     149
     124     125     150
     125     151     150
     125     126     151
     126     152     151
     126     127     152
     127     153     152
     127     128     153
     128     154     153
     128     129     154
     129     155     154
     129     130     155
     130     156     155
