TITLE="test case governed by poisson equation"
VARIABLES="x" "y" "u" "v" "sigax"  "sigmay" "sigmaxy"
ZONE T="flow-field", N=      153,E=     256,ET=TRIANGLE, F=FEPOINT
     0.000000e+00    -2.000000e+00     0.000000e+00     0.000000e+00    -4.559076e+00     0.000000e+00    -9.129719e-01
     0.000000e+00    -1.750000e+00     0.000000e+00     0.000000e+00    -4.236563e+00    -2.849100e-02    -8.436345e-01
     0.000000e+00    -1.500000e+00     0.000000e+00     0.000000e+00    -3.396354e+00     9.192755e-03    -7.699345e-01
     0.000000e+00    -1.250000e+00     0.000000e+00     0.000000e+00    -2.213020e+00     2.307838e-02    -7.027985e-01
     0.000000e+00    -1.000000e+00     0.000000e+00     0.000000e+00    -8.414550e-01     2.774740e-02    -6.390706e-01
     0.000000e+00    -7.500000e-01     0.000000e+00     0.000000e+00     6.574126e-01     2.845065e-02    -5.787661e-01
     0.000000e+00    -5.000000e-01     0.000000e+00     0.000000e+00     2.261380e+00     2.654317e-02    -5.217672e-01
     0.000000e+00    -2.500000e-01     0.000000e+00     0.000000e+00     3.979541e+00     2.029052e-02    -4.682645e-01
     0.000000e+00    -0.000000e+00     0.000000e+00     0.000000e+00     5.561501e+00    -7.654612e-04    -2.509440e-01
     2.500000e-01    -1.937500e+00    -1.139769e+00    -4.564860e-01    -4.552505e+00    -5.698201e-02    -9.369557e-01
     2.500000e-01    -1.695312e+00    -1.003434e+00    -4.771865e-01    -4.079648e+00    -4.932184e-02    -8.365172e-01
     2.500000e-01    -1.453125e+00    -7.471103e-01    -4.705073e-01    -3.014799e+00     2.505334e-02    -6.759949e-01
     2.500000e-01    -1.210938e+00    -4.308201e-01    -4.537395e-01    -1.737954e+00     5.625390e-02    -5.728634e-01
     2.500000e-01    -9.687500e-01    -7.732971e-02    -4.335792e-01    -3.190935e-01     6.791180e-02    -4.914031e-01
     2.500000e-01    -7.265625e-01     3.036280e-01    -4.129081e-01     1.207895e+00     6.886404e-02    -4.191836e-01
     2.500000e-01    -4.843750e-01     7.092892e-01    -3.936228e-01     2.833719e+00     5.949697e-02    -3.483954e-01
     2.500000e-01    -2.421875e-01     1.144706e+00    -3.788805e-01     4.580166e+00     2.758496e-02    -2.640949e-01
     2.500000e-01    -0.000000e+00     1.636044e+00    -3.792512e-01     5.757258e+00    -1.168473e-03    -2.977809e-02
     5.000000e-01    -1.875000e+00    -2.344976e+00    -1.219729e+00    -4.768713e+00    -1.485854e-01    -1.128084e+00
     5.000000e-01    -1.640625e+00    -1.950868e+00    -1.261950e+00    -4.112847e+00    -1.105465e-01    -9.247726e-01
     5.000000e-01    -1.406250e+00    -1.407805e+00    -1.272100e+00    -2.932816e+00    -1.222481e-02    -7.219738e-01
     5.000000e-01    -1.171875e+00    -7.742262e-01    -1.264467e+00    -1.626806e+00     4.204503e-02    -5.919147e-01
     5.000000e-01    -9.375000e-01    -7.874090e-02    -1.247994e+00    -2.184278e-01     6.780983e-02    -4.944719e-01
     5.000000e-01    -7.031250e-01     6.648898e-01    -1.228489e+00     1.275172e+00     7.278279e-02    -4.100165e-01
     5.000000e-01    -4.687500e-01     1.452336e+00    -1.210681e+00     2.844154e+00     5.771350e-02    -3.235459e-01
     5.000000e-01    -2.343750e-01     2.288508e+00    -1.199706e+00     4.474199e+00     1.887650e-02    -2.102313e-01
     5.000000e-01    -0.000000e+00     3.189990e+00    -1.199810e+00     5.538489e+00    -1.367390e-03     1.362669e-02
     7.500000e-01    -1.812500e+00    -3.536632e+00    -2.371797e+00    -4.893086e+00    -2.226878e-01    -1.250932e+00
     7.500000e-01    -1.585938e+00    -2.831684e+00    -2.427069e+00    -4.129070e+00    -1.760485e-01    -1.000957e+00
     7.500000e-01    -1.359375e+00    -1.982318e+00    -2.454508e+00    -2.864853e+00    -7.778626e-02    -7.785801e-01
     7.500000e-01    -1.132812e+00    -1.032057e+00    -2.462817e+00    -1.533536e+00    -1.318388e-02    -6.243379e-01
     7.500000e-01    -9.062500e-01    -6.478807e-03    -2.459532e+00    -1.357473e-01     2.337375e-02    -5.053471e-01
     7.500000e-01    -6.796875e-01     1.080586e+00    -2.450772e+00     1.322085e+00     3.627181e-02    -4.006868e-01
     7.500000e-01    -4.531250e-01     2.223542e+00    -2.441756e+00     2.830156e+00     2.832984e-02    -2.941853e-01
     7.500000e-01    -2.265625e-01     3.423221e+00    -2.436767e+00     4.369352e+00     6.088055e-03    -1.706398e-01
     7.500000e-01    -0.000000e+00     4.685247e+00    -2.437495e+00     5.370408e+00    -4.553929e-03     4.253810e-02
     1.000000e+00    -1.750000e+00    -4.664251e+00    -3.946985e+00    -4.940482e+00    -2.698848e-01    -1.323059e+00
     1.000000e+00    -1.531250e+00    -3.631459e+00    -4.008857e+00    -4.117238e+00    -2.265678e-01    -1.055676e+00
     1.000000e+00    -1.312500e+00    -2.469154e+00    -4.049047e+00    -2.802712e+00    -1.404984e-01    -8.307107e-01
     1.000000e+00    -1.093750e+00    -1.207086e+00    -4.072023e+00    -1.457991e+00    -7.577844e-02    -6.612310e-01
     1.000000e+00    -8.750000e-01     1.348842e-01    -4.082809e+00    -7.552130e-02    -3.251412e-02    -5.235042e-01
     1.000000e+00    -6.562500e-01     1.544801e+00    -4.086148e+00     1.344635e+00    -9.047021e-03    -3.998905e-01
     1.000000e+00    -4.375000e-01     3.016506e+00    -4.086252e+00     2.797129e+00    -2.425629e-03    -2.778031e-01
     1.000000e+00    -2.187500e-01     4.547589e+00    -4.086392e+00     4.270107e+00    -6.213242e-03    -1.500406e-01
     1.000000e+00    -0.000000e+00     6.136947e+00    -4.087974e+00     5.232167e+00    -8.560229e-03     5.814351e-02
     1.250000e+00    -1.687500e+00    -5.694468e+00    -5.961534e+00    -4.925503e+00    -2.977233e-01    -1.360034e+00
     1.250000e+00    -1.476562e+00    -4.336019e+00    -6.025904e+00    -4.074381e+00    -2.613823e-01    -1.089181e+00
     1.250000e+00    -1.265625e+00    -2.865091e+00    -6.074166e+00    -2.738530e+00    -1.904870e-01    -8.724890e-01
     1.250000e+00    -1.054688e+00    -1.301494e+00    -6.108018e+00    -1.395180e+00    -1.301368e-01    -6.979003e-01
     1.250000e+00    -8.437500e-01     3.404886e-01    -6.130084e+00    -3.503956e-02    -8.275182e-02    -5.488514e-01
     1.250000e+00    -6.328125e-01     2.051601e+00    -6.143287e+00     1.346081e+00    -4.886833e-02    -4.120377e-01
     1.250000e+00    -4.218750e-01     3.826329e+00    -6.150532e+00     2.748759e+00    -2.761540e-02    -2.787430e-01
     1.250000e+00    -2.109375e-01     5.661182e+00    -6.154398e+00     4.170296e+00    -1.625818e-02    -1.461914e-01
     1.250000e+00    -0.000000e+00     7.552542e+00    -6.156764e+00     5.102708e+00    -1.240473e-02     6.285991e-02
     1.500000e+00    -1.625000e+00    -6.604041e+00    -8.423792e+00    -4.859334e+00    -3.128189e-01    -1.372530e+00
     1.500000e+00    -1.421875e+00    -4.932763e+00    -8.488111e+00    -4.000240e+00    -2.836249e-01    -1.105181e+00
     1.500000e+00    -1.218750e+00    -3.165744e+00    -8.540785e+00    -2.665460e+00    -2.268583e-01    -9.040313e-01
     1.500000e+00    -1.015625e+00    -1.316104e+00    -8.581681e+00    -1.337911e+00    -1.718712e-01    -7.334920e-01
     1.500000e+00    -8.125000e-01     6.065922e-01    -8.611510e+00    -8.314214e-03    -1.218903e-01    -5.812837e-01
     1.500000e+00    -6.093750e-01     2.596160e+00    -8.631589e+00     1.330749e+00    -7.939855e-02    -4.373477e-01
     1.500000e+00    -4.062500e-01     4.648895e+00    -8.643718e+00     2.685344e+00    -4.631354e-02    -2.956150e-01
     1.500000e+00    -2.031250e-01     6.762214e+00    -8.650062e+00     4.060508e+00    -2.393854e-02    -1.552660e-01
     1.500000e+00    -0.000000e+00     8.932996e+00    -8.653064e+00     4.963503e+00    -1.581344e-02     5.916044e-02
     1.750000e+00    -1.562500e+00    -7.375522e+00    -1.133823e+01    -4.748381e+00    -3.195606e-01    -1.367408e+00
     1.750000e+00    -1.367188e+00    -5.410498e+00    -1.140093e+01    -3.893932e+00    -2.967855e-01    -1.107768e+00
     1.750000e+00    -1.171875e+00    -3.365904e+00    -1.145549e+01    -2.577243e+00    -2.522017e-01    -9.278889e-01
     1.750000e+00    -9.765625e-01    -1.250254e+00    -1.150046e+01    -1.278916e+00    -2.021625e-01    -7.690460e-01
     1.750000e+00    -7.812500e-01     9.308897e-01    -1.153510e+01     1.057047e-02    -1.504138e-01    -6.206429e-01
     1.750000e+00    -5.859375e-01     3.174657e+00    -1.155950e+01     1.301552e+00    -1.013150e-01    -4.742832e-01
     1.750000e+00    -3.906250e-01     5.480046e+00    -1.157467e+01     2.604725e+00    -5.951332e-02    -3.253281e-01
     1.750000e+00    -1.953125e-01     7.846788e+00    -1.158256e+01     3.930875e+00    -2.964775e-02    -1.736652e-01
     1.750000e+00    -0.000000e+00     1.027409e+01    -1.158605e+01     4.799099e+00    -1.875185e-02     4.900985e-02
     2.000000e+00    -1.500000e+00    -7.994338e+00    -1.470691e+01    -4.593878e+00    -3.207706e-01    -1.348615e+00
     2.000000e+00    -1.312500e+00    -5.758728e+00    -1.476704e+01    -3.752331e+00    -3.038169e-01    -1.100162e+00
     2.000000e+00    -1.125000e+00    -3.459643e+00    -1.482191e+01    -2.467667e+00    -2.699013e-01    -9.471124e-01
     2.000000e+00    -9.375000e-01    -1.102066e+00    -1.486895e+01    -1.211910e+00    -2.239376e-01    -8.063951e-01
     2.000000e+00    -7.500000e-01     1.312138e+00    -1.490628e+01     2.582932e-02    -1.705628e-01    -6.670684e-01
     2.000000e+00    -5.625000e-01     3.783690e+00    -1.493310e+01     1.259177e+00    -1.162351e-01    -5.211451e-01
     2.000000e+00    -3.750000e-01     6.314928e+00    -1.494992e+01     2.502935e+00    -6.819446e-02    -3.648081e-01
     2.000000e+00    -1.875000e-01     8.908718e+00    -1.495865e+01     3.771941e+00    -3.358731e-02    -1.984407e-01
     2.000000e+00    -0.000000e+00     1.156748e+01    -1.496250e+01     4.596693e+00    -2.108280e-02     3.389483e-02
     2.250000e+00    -1.437500e+00    -8.446637e+00    -1.852954e+01    -4.391720e+00    -3.181829e-01    -1.317758e+00
     2.250000e+00    -1.257812e+00    -5.966824e+00    -1.858649e+01    -3.569120e+00    -3.068751e-01    -1.084474e+00
     2.250000e+00    -1.078125e+00    -3.440332e+00    -1.864076e+01    -2.329961e+00    -2.827973e-01    -9.647848e-01
     2.250000e+00    -8.984375e-01    -8.689082e-01    -1.868861e+01    -1.131900e+00    -2.396578e-01    -8.480573e-01
     2.250000e+00    -7.187500e-01     1.749449e+00    -1.872711e+01     3.920835e-02    -1.838758e-01    -7.214438e-01
     2.250000e+00    -5.390625e-01     4.419506e+00    -1.875483e+01     1.201559e+00    -1.247016e-01    -5.767509e-01
     2.250000e+00    -3.593750e-01     7.147433e+00    -1.877211e+01     2.374240e+00    -7.214059e-02    -4.113023e-01
     2.250000e+00    -1.796875e-01     9.939541e+00    -1.878100e+01     3.574743e+00    -3.519133e-02    -2.268809e-01
     2.250000e+00    -0.000000e+00     1.280157e+01    -1.878500e+01     4.345847e+00    -2.215323e-02     1.544210e-02
     2.500000e+00    -1.375000e+00    -8.717559e+00    -2.280244e+01    -4.131686e+00    -3.127562e-01    -1.274545e+00
     2.500000e+00    -1.203125e+00    -6.023186e+00    -2.285584e+01    -3.333546e+00    -3.073577e-01    -1.062106e+00
     2.500000e+00    -1.031250e+00    -3.300644e+00    -2.290900e+01    -2.156065e+00    -2.927047e-01    -9.845922e-01
     2.500000e+00    -8.593750e-01    -5.480192e-01    -2.295674e+01    -1.035392e+00    -2.503690e-01    -8.978649e-01
     2.500000e+00    -6.875000e-01     2.241332e+00    -2.299510e+01     4.908955e-02    -1.900994e-01    -7.859414e-01
     2.500000e+00    -5.156250e-01     5.077038e+00    -2.302219e+01     1.122813e+00    -1.252199e-01    -6.406075e-01
     2.500000e+00    -3.437500e-01     7.969593e+00    -2.303850e+01     2.210386e+00    -6.917444e-02    -4.618636e-01
     2.500000e+00    -1.718750e-01     1.092861e+01    -2.304660e+01     3.330771e+00    -3.249174e-02    -2.554144e-01
     2.500000e+00    -0.000000e+00     1.396224e+01    -2.305037e+01     4.039451e+00    -2.009015e-02    -3.026151e-03
     2.750000e+00    -1.312500e+00    -8.789425e+00    -2.751658e+01    -3.794951e+00    -3.050202e-01    -1.216948e+00
     2.750000e+00    -1.148438e+00    -5.914322e+00    -2.756616e+01    -3.028172e+00    -3.062584e-01    -1.034511e+00
     2.750000e+00    -9.843750e-01    -3.032643e+00    -2.761796e+01    -1.935937e+00    -3.007962e-01    -1.011906e+00
     2.750000e+00    -8.203125e-01    -1.374147e-01    -2.766489e+01    -9.211272e-01    -2.563798e-01    -9.618534e-01
     2.750000e+00    -6.562500e-01     2.784322e+00    -2.770176e+01     4.880968e-02    -1.882785e-01    -8.646546e-01
     2.750000e+00    -4.921875e-01     5.748511e+00    -2.772640e+01     1.011065e+00    -1.153752e-01    -7.131707e-01
     2.750000e+00    -3.281250e-01     8.770713e+00    -2.773977e+01     1.998740e+00    -5.567079e-02    -5.128179e-01
     2.750000e+00    -1.640625e-01     1.186327e+01    -2.774545e+01     3.032086e+00    -2.175080e-02    -2.781065e-01
     2.750000e+00    -0.000000e+00     1.503438e+01    -2.774814e+01     3.677369e+00    -1.067686e-02    -1.318774e-02
     3.000000e+00    -1.250000e+00    -8.639219e+00    -3.265368e+01    -3.349054e+00    -2.956058e-01    -1.140517e+00
     3.000000e+00    -1.093750e+00    -5.623821e+00    -3.269935e+01    -2.625863e+00    -3.050284e-01    -1.003559e+00
     3.000000e+00    -9.375000e-01    -2.628231e+00    -3.274989e+01    -1.657819e+00    -3.099010e-01    -1.053521e+00
     3.000000e+00    -7.812500e-01     3.626238e-01    -3.279576e+01    -7.914986e-01    -2.624350e-01    -1.047454e+00
     3.000000e+00    -6.250000e-01     3.370923e+00    -3.283049e+01     2.492432e-02    -1.845940e-01    -9.636151e-01
     3.000000e+00    -4.687500e-01     6.421291e+00    -3.285142e+01     8.458881e-01    -1.003562e-01    -7.973830e-01
     3.000000e+00    -3.125000e-01     9.535837e+00    -3.285996e+01     1.718997e+00    -3.314791e-02    -5.616819e-01
     3.000000e+00    -1.562500e-01     1.272922e+01    -3.286098e+01     2.670842e+00    -2.509148e-04    -2.866733e-01
     3.000000e+00    -0.000000e+00     1.600532e+01    -3.286086e+01     3.273692e+00     1.259231e-02     4.082478e-03
     3.250000e+00    -1.187500e+00    -8.234889e+00    -3.817769e+01    -2.743581e+00    -2.860105e-01    -1.035104e+00
     3.250000e+00    -1.039062e+00    -5.131858e+00    -3.821968e+01    -2.091141e+00    -3.074161e-01    -9.680085e-01
     3.250000e+00    -8.906250e-01    -2.080570e+00    -3.827005e+01    -1.312151e+00    -3.328360e-01    -1.108568e+00
     3.250000e+00    -7.421875e-01     9.474290e-01    -3.831728e+01    -6.521680e-01    -2.967114e-01    -1.153719e+00
     3.250000e+00    -5.937500e-01     3.987182e+00    -3.835365e+01    -3.876758e-02    -2.202488e-01    -1.086628e+00
     3.250000e+00    -4.453125e-01     7.075017e+00    -3.837494e+01     6.011140e-01    -1.259609e-01    -9.030704e-01
     3.250000e+00    -2.968750e-01     1.024294e+01    -3.838116e+01     1.340508e+00    -3.997721e-02    -6.186801e-01
     3.250000e+00    -1.484375e-01     1.351027e+01    -3.837723e+01     2.234604e+00     1.156074e-02    -2.812529e-01
     3.250000e+00    -0.000000e+00     1.687241e+01    -3.837185e+01     2.862319e+00     4.050056e-02     8.080976e-02
     3.500000e+00    -1.125000e+00    -7.532947e+00    -4.401438e+01    -1.930577e+00    -2.787133e-01    -8.750637e-01
     3.500000e+00    -9.843750e-01    -4.418401e+00    -4.405328e+01    -1.408526e+00    -3.226145e-01    -9.015112e-01
     3.500000e+00    -8.437500e-01    -1.387271e+00    -4.410789e+01    -9.022596e-01    -4.189587e-01    -1.127535e+00
     3.500000e+00    -7.031250e-01     1.607110e+00    -4.416858e+01    -5.001062e-01    -4.572015e-01    -1.233954e+00
     3.500000e+00    -5.625000e-01     4.612912e+00    -4.422633e+01    -1.360663e-01    -4.427232e-01    -1.209727e+00
     3.500000e+00    -4.218750e-01     7.680582e+00    -4.427281e+01     2.736178e-01    -3.792892e-01    -1.043877e+00
     3.500000e+00    -2.812500e-01     1.085893e+01    -4.430128e+01     8.384400e-01    -2.765834e-01    -7.360352e-01
     3.500000e+00    -1.406250e-01     1.418433e+01    -4.430928e+01     1.694715e+00    -1.566869e-01    -3.246898e-01
     3.500000e+00    -0.000000e+00     1.765495e+01    -4.430239e+01     2.463472e+00    -1.312294e-01     1.894064e-01
     3.750000e+00    -1.062500e+00    -6.494284e+00    -5.000688e+01    -1.008148e+00    -2.698582e-01    -5.988768e-01
     3.750000e+00    -9.296875e-01    -3.479073e+00    -5.004227e+01    -6.871563e-01    -3.792485e-01    -6.618519e-01
     3.750000e+00    -7.968750e-01    -5.527250e-01    -5.011608e+01    -4.612108e-01    -6.596012e-01    -9.244029e-01
     3.750000e+00    -6.640625e-01     2.332942e+00    -5.022414e+01    -3.126255e-01    -9.439466e-01    -1.083621e+00
     3.750000e+00    -5.312500e-01     5.233673e+00    -5.036101e+01    -1.913102e-01    -1.206355e+00    -1.148617e+00
     3.750000e+00    -3.984375e-01     8.212743e+00    -5.051612e+01    -2.603041e-02    -1.410670e+00    -1.113915e+00
     3.750000e+00    -2.656250e-01     1.134333e+01    -5.067116e+01     3.109455e-01    -1.516377e+00    -9.593988e-01
     3.750000e+00    -1.328125e-01     1.470882e+01    -5.079873e+01     1.073245e+00    -1.488429e+00    -6.686428e-01
     3.750000e+00    -0.000000e+00     1.838834e+01    -5.086403e+01     1.880909e+00    -2.807778e+00    -5.145922e-01
     4.000000e+00    -1.000000e+00    -5.183663e+00    -5.586058e+01    -4.349822e-01    -2.545795e-01    -3.242042e-01
     4.000000e+00    -8.750000e-01    -2.347393e+00    -5.589092e+01    -3.418146e-01    -5.285518e-01    -5.350112e-01
     4.000000e+00    -7.500000e-01     4.058591e-01    -5.598932e+01    -2.533649e-01    -1.055167e+00    -7.935400e-01
     4.000000e+00    -6.250000e-01     3.127068e+00    -5.618490e+01    -2.182316e-01    -1.701977e+00    -9.921582e-01
     4.000000e+00    -5.000000e-01     5.871352e+00    -5.649875e+01    -2.018533e-01    -2.423243e+00    -1.163986e+00
     4.000000e+00    -3.750000e-01     8.704179e+00    -5.694763e+01    -1.412662e-01    -3.181317e+00    -1.314934e+00
     4.000000e+00    -2.500000e-01     1.171440e+01    -5.754582e+01     1.276228e-01    -3.940429e+00    -1.404423e+00
     4.000000e+00    -1.250000e-01     1.504263e+01    -5.830522e+01     1.070790e+00    -4.668953e+00    -1.292650e+00
     4.000000e+00    -0.000000e+00     1.894826e+01    -5.923523e+01     2.239703e+00    -7.440074e+00    -1.119852e+00
       1       10        2
      10       11        2
       2       11        3
      11       12        3
       3       12        4
      12       13        4
       4       13        5
      13       14        5
       5       14        6
      14       15        6
       6       15        7
      15       16        7
       7       16        8
      16       17        8
       8       17        9
      17       18        9
      10       19       11
      19       20       11
      11       20       12
      20       21       12
      12       21       13
      21       22       13
      13       22       14
      22       23       14
      14       23       15
      23       24       15
      15       24       16
      24       25       16
      16       25       17
      25       26       17
      17       26       18
      26       27       18
      19       28       20
      28       29       20
      20       29       21
      29       30       21
      21       30       22
      30       31       22
      22       31       23
      31       32       23
      23       32       24
      32       33       24
      24       33       25
      33       34       25
      25       34       26
      34       35       26
      26       35       27
      35       36       27
      28       37       29
      37       38       29
      29       38       30
      38       39       30
      30       39       31
      39       40       31
      31       40       32
      40       41       32
      32       41       33
      41       42       33
      33       42       34
      42       43       34
      34       43       35
      43       44       35
      35       44       36
      44       45       36
      37       46       38
      46       47       38
      38       47       39
      47       48       39
      39       48       40
      48       49       40
      40       49       41
      49       50       41
      41       50       42
      50       51       42
      42       51       43
      51       52       43
      43       52       44
      52       53       44
      44       53       45
      53       54       45
      46       55       47
      55       56       47
      47       56       48
      56       57       48
      48       57       49
      57       58       49
      49       58       50
      58       59       50
      50       59       51
      59       60       51
      51       60       52
      60       61       52
      52       61       53
      61       62       53
      53       62       54
      62       63       54
      55       64       56
      64       65       56
      56       65       57
      65       66       57
      57       66       58
      66       67       58
      58       67       59
      67       68       59
      59       68       60
      68       69       60
      60       69       61
      69       70       61
      61       70       62
      70       71       62
      62       71       63
      71       72       63
      64       73       65
      73       74       65
      65       74       66
      74       75       66
      66       75       67
      75       76       67
      67       76       68
      76       77       68
      68       77       69
      77       78       69
      69       78       70
      78       79       70
      70       79       71
      79       80       71
      71       80       72
      80       81       72
      73       82       74
      82       83       74
      74       83       75
      83       84       75
      75       84       76
      84       85       76
      76       85       77
      85       86       77
      77       86       78
      86       87       78
      78       87       79
      87       88       79
      79       88       80
      88       89       80
      80       89       81
      89       90       81
      82       91       83
      91       92       83
      83       92       84
      92       93       84
      84       93       85
      93       94       85
      85       94       86
      94       95       86
      86       95       87
      95       96       87
      87       96       88
      96       97       88
      88       97       89
      97       98       89
      89       98       90
      98       99       90
      91      100       92
     100      101       92
      92      101       93
     101      102       93
      93      102       94
     102      103       94
      94      103       95
     103      104       95
      95      104       96
     104      105       96
      96      105       97
     105      106       97
      97      106       98
     106      107       98
      98      107       99
     107      108       99
     100      109      101
     109      110      101
     101      110      102
     110      111      102
     102      111      103
     111      112      103
     103      112      104
     112      113      104
     104      113      105
     113      114      105
     105      114      106
     114      115      106
     106      115      107
     115      116      107
     107      116      108
     116      117      108
     109      118      110
     118      119      110
     110      119      111
     119      120      111
     111      120      112
     120      121      112
     112      121      113
     121      122      113
     113      122      114
     122      123      114
     114      123      115
     123      124      115
     115      124      116
     124      125      116
     116      125      117
     125      126      117
     118      127      119
     127      128      119
     119      128      120
     128      129      120
     120      129      121
     129      130      121
     121      130      122
     130      131      122
     122      131      123
     131      132      123
     123      132      124
     132      133      124
     124      133      125
     133      134      125
     125      134      126
     134      135      126
     127      136      128
     136      137      128
     128      137      129
     137      138      129
     129      138      130
     138      139      130
     130      139      131
     139      140      131
     131      140      132
     140      141      132
     132      141      133
     141      142      133
     133      142      134
     142      143      134
     134      143      135
     143      144      135
     136      145      137
     145      146      137
     137      146      138
     146      147      138
     138      147      139
     147      148      139
     139      148      140
     148      149      140
     140      149      141
     149      150      141
     141      150      142
     150      151      142
     142      151      143
     151      152      143
     143      152      144
     152      153      144
