TITLE="test case governed by poisson equation"
VARIABLES="x" "y" "z" "u" "v" "w" "sxx"  "syy" "szz"
ZONE T="flow-field", N=     1701,E=    1280,ET=BRICK, F=FEPOINT
0.0000000000,0.0000000000,0.0000000000,0.0004695930,0.0000099584,-0.0000037533,0.0037567439
0.0000796674,-0.0000300268,0.0000000000,5.0000000000,0.0000000000,0.0004728696,0.0000099529,-0.0000027252,0.0075659135
0.0001592464,-0.0000436026,0.0000000000,10.0000000000,0.0000000000,0.0004762146,0.0000099336,-0.0000017563,0.0076194329
0.0001589379,-0.0000281008,0.0000000000,15.0000000000,0.0000000000,0.0004796119,0.0000099005,-0.0000008460,0.0076737908
0.0001584083,-0.0000135363,0.0000000000,20.0000000000,0.0000000000,0.0004830187,0.0000098615,0.0000000390,0.0077282988
0.0001577839,0.0000006243,0.0000000000,25.0000000000,0.0000000000,0.0004863928,0.0000098275,0.0000009379,0.0077822843
0.0001572401,0.0000150063,0.0000000000,30.0000000000,0.0000000000,0.0004897080,0.0000098079,0.0000018824,0.0078353279
0.0001569271,0.0000301191,0.0000000000,35.0000000000,0.0000000000,0.0004929630,0.0000098048,0.0000028857,0.0078874085
0.0001568768,0.0000461716,0.0000000000,40.0000000000,0.0000000000,0.0004961859,0.0000098086,0.0000039306,0.0039694871
0.0000784687,0.0000314452,8.0000000000,0.0000000000,0.0000000000,0.0004695713,0.0000047786,0.0000924256,0.0075131405
0.0000764573,0.0014788091,8.0000000000,4.6000000000,0.0000000000,0.0004725775,0.0000047807,0.0000933935,0.0151224791
0.0001529810,0.0029885930,8.0000000000,9.2000000000,0.0000000000,0.0004756680,0.0000047645,0.0000943469,0.0152213749
0.0001524648,0.0030191008,8.0000000000,13.8000000000,0.0000000000,0.0004788063,0.0000047373,0.0000952803,0.0153218029
0.0001515936,0.0030489687,8.0000000000,18.4000000000,0.0000000000,0.0004819544,0.0000047103,0.0000962004,0.0154225413
0.0001507287,0.0030784124,8.0000000000,23.0000000000,0.0000000000,0.0004850761,0.0000046907,0.0000971199,0.0155224337
0.0001501018,0.0031078355,8.0000000000,27.6000000000,0.0000000000,0.0004881457,0.0000046807,0.0000980513,0.0156206618
0.0001497816,0.0031376423,8.0000000000,32.2000000000,0.0000000000,0.0004911543,0.0000046777,0.0000990020,0.0157169386
0.0001496869,0.0031680656,8.0000000000,36.8000000000,0.0000000000,0.0004941142,0.0000046782,0.0000999669,0.0079058273
0.0000748517,0.0015994701,16.0000000000,0.0000000000,0.0000000000,0.0004694303,-0.0000003233,0.0001886117,0.0075108841
-0.0000051727,0.0030177874,16.0000000000,4.2000000000,0.0000000000,0.0004721986,-0.0000002887,0.0001895281,0.0151103554
-0.0000092377,0.0060649000,16.0000000000,8.4000000000,0.0000000000,0.0004750637,-0.0000002706,0.0001904480,0.0152020374
-0.0000086606,0.0060943353,16.0000000000,12.6000000000,0.0000000000,0.0004779713,-0.0000002737,0.0001913686,0.0152950816
-0.0000087598,0.0061237956,16.0000000000,16.8000000000,0.0000000000,0.0004808841,-0.0000002951,0.0001922873,0.0153882902
-0.0000094419,0.0061531927,16.0000000000,21.0000000000,0.0000000000,0.0004837704,-0.0000003280,0.0001932028,0.0154806531
-0.0000104969,0.0061824891,16.0000000000,25.2000000000,0.0000000000,0.0004866059,-0.0000003649,0.0001941149,0.0155713879
-0.0000116768,0.0062116777,16.0000000000,29.4000000000,0.0000000000,0.0004893755,-0.0000003970,0.0001950234,0.0156600175
-0.0000127047,0.0062407478,16.0000000000,33.6000000000,0.0000000000,0.0004920746,-0.0000004129,0.0001959274,0.0078731933
-0.0000066061,0.0031348384,24.0000000000,0.0000000000,0.0000000000,0.0004690605,-0.0000055369,0.0002848191,0.0075049682
-0.0000885898,0.0045571053,24.0000000000,3.8000000000,0.0000000000,0.0004716659,-0.0000054752,0.0002856836,0.0150933075
-0.0001752048,0.0091418752,24.0000000000,7.6000000000,0.0000000000,0.0004743574,-0.0000054376,0.0002865548,0.0151794359
-0.0001740032,0.0091697527,24.0000000000,11.4000000000,0.0000000000,0.0004770849,-0.0000054277,0.0002874324,0.0152667181
-0.0001736869,0.0091978356,24.0000000000,15.2000000000,0.0000000000,0.0004798105,-0.0000054449,0.0002883118,0.0153539373
-0.0001742357,0.0092259778,24.0000000000,19.0000000000,0.0000000000,0.0004825033,-0.0000054834,0.0002891877,0.0154401057
-0.0001754694,0.0092540051,24.0000000000,22.8000000000,0.0000000000,0.0004851386,-0.0000055336,0.0002900551,0.0155244368
-0.0001770759,0.0092817642,24.0000000000,26.6000000000,0.0000000000,0.0004876983,-0.0000055822,0.0002909113,0.0156063448
-0.0001786296,0.0093091622,24.0000000000,30.4000000000,0.0000000000,0.0004901687,-0.0000056124,0.0002917575,0.0078426997
-0.0000897989,0.0046681204,32.0000000000,0.0000000000,0.0000000000,0.0004684375,-0.0000110603,0.0003810340,0.0074950003
-0.0001769646,0.0060965443,32.0000000000,3.4000000000,0.0000000000,0.0004709383,-0.0000109778,0.0003818448,0.0150700271
-0.0003512903,0.0122190349,32.0000000000,6.8000000000,0.0000000000,0.0004735139,-0.0000109265,0.0003826617,0.0151524445
-0.0003496486,0.0122451738,32.0000000000,10.2000000000,0.0000000000,0.0004761169,-0.0000109092,0.0003834829,0.0152357398
-0.0003490949,0.0122714523,32.0000000000,13.6000000000,0.0000000000,0.0004787103,-0.0000109241,0.0003843043,0.0153187306
-0.0003495722,0.0122977374,32.0000000000,17.0000000000,0.0000000000,0.0004812631,-0.0000109650,0.0003851206,0.0154004182
-0.0003508788,0.0123238607,32.0000000000,20.4000000000,0.0000000000,0.0004837494,-0.0000110213,0.0003859271,0.0154799811
-0.0003526813,0.0123496657,32.0000000000,23.8000000000,0.0000000000,0.0004861487,-0.0000110792,0.0003867205,0.0155567581
-0.0003545350,0.0123750547,32.0000000000,27.2000000000,0.0000000000,0.0004884431,-0.0000111216,0.0003875011,0.0078150890
-0.0001779452,0.0062000175,40.0000000000,0.0000000000,0.0000000000,0.0004675687,-0.0000170672,0.0004772249,0.0074810984
-0.0002730752,0.0076355978,40.0000000000,3.0000000000,0.0000000000,0.0004699999,-0.0000169705,0.0004779876,0.0150399972
-0.0005430565,0.0152956031,40.0000000000,6.0000000000,0.0000000000,0.0004725039,-0.0000169098,0.0004787553,0.0151201248
-0.0005411142,0.0153201684,40.0000000000,9.0000000000,0.0000000000,0.0004750308,-0.0000168876,0.0004795241,0.0152009845
-0.0005404044,0.0153447699,40.0000000000,12.0000000000,0.0000000000,0.0004775424,-0.0000169015,0.0004802899,0.0152813558
-0.0005408481,0.0153692768,40.0000000000,15.0000000000,0.0000000000,0.0004800062,-0.0000169444,0.0004810482,0.0153601999
-0.0005422221,0.0153935437,40.0000000000,18.0000000000,0.0000000000,0.0004823948,-0.0000170056,0.0004817950,0.0154366337
-0.0005441808,0.0154174386,40.0000000000,21.0000000000,0.0000000000,0.0004846852,-0.0000170709,0.0004825272,0.0155099269
-0.0005462684,0.0154408696,40.0000000000,24.0000000000,0.0000000000,0.0004868558,-0.0000171225,0.0004832439,0.0077896934
-0.0002739602,0.0077319017,48.0000000000,0.0000000000,0.0000000000,0.0004664490,-0.0000237593,0.0005733727,0.0074631836
-0.0003801493,0.0091739634,48.0000000000,2.6000000000,0.0000000000,0.0004688352,-0.0000236526,0.0005740975,0.0150027262
-0.0007568830,0.0183711189,48.0000000000,5.2000000000,0.0000000000,0.0004712988,-0.0000235854,0.0005748275,0.0150815623
-0.0007547325,0.0183944814,48.0000000000,7.8000000000,0.0000000000,0.0004737855,-0.0000235604,0.0005755568,0.0151611366
-0.0007539344,0.0184178167,48.0000000000,10.4000000000,0.0000000000,0.0004762539,-0.0000235746,0.0005762806,0.0152401236
-0.0007543874,0.0184409788,48.0000000000,13.0000000000,0.0000000000,0.0004786694,-0.0000236201,0.0005769946,0.0153174219
-0.0007558433,0.0184638262,48.0000000000,15.6000000000,0.0000000000,0.0004810028,-0.0000236858,0.0005776949,0.0153920886
-0.0007579461,0.0184862363,48.0000000000,18.2000000000,0.0000000000,0.0004832271,-0.0000237576,0.0005783786,0.0154632659
-0.0007602417,0.0185081160,48.0000000000,20.8000000000,0.0000000000,0.0004853169,-0.0000238166,0.0005790425,0.0077650704
-0.0003810653,0.0092646793,56.0000000000,0.0000000000,0.0000000000,0.0004650238,-0.0000314389,0.0006694792,0.0074403814
-0.0005030227,0.0107116678,56.0000000000,2.2000000000,0.0000000000,0.0004673920,-0.0000313216,0.0006701759,0.0149565448
-0.0010022896,0.0214456276,56.0000000000,4.4000000000,0.0000000000,0.0004698455,-0.0000312488,0.0006708801,0.0150350559
-0.0009999616,0.0214681624,56.0000000000,6.6000000000,0.0000000000,0.0004723232,-0.0000312226,0.0006715832,0.0151143438
-0.0009991237,0.0214906632,56.0000000000,8.8000000000,0.0000000000,0.0004747793,-0.0000312392,0.0006722796,0.0151929370
-0.0009996545,0.0215129484,56.0000000000,11.0000000000,0.0000000000,0.0004771762,-0.0000312894,0.0006729643,0.0152696373
-0.0010012615,0.0215348574,56.0000000000,13.2000000000,0.0000000000,0.0004794839,-0.0000313600,0.0006736332,0.0153434841
-0.0010035213,0.0215562635,56.0000000000,15.4000000000,0.0000000000,0.0004816773,-0.0000314352,0.0006742836,0.0154136727
-0.0010059276,0.0215770765,56.0000000000,17.6000000000,0.0000000000,0.0004837230,-0.0000314964,0.0006749122,0.0077395676
-0.0005039425,0.0107985960,64.0000000000,0.0000000000,0.0000000000,0.0004631382,-0.0000406452,0.0007655748,0.0074102107
-0.0006503225,0.0122491960,64.0000000000,1.8000000000,0.0000000000,0.0004655382,-0.0000405135,0.0007662443,0.0148972223
-0.0012964310,0.0245198188,64.0000000000,3.6000000000,0.0000000000,0.0004680201,-0.0000404284,0.0007669269,0.0149766424
-0.0012937092,0.0245416607,64.0000000000,5.4000000000,0.0000000000,0.0004705268,-0.0000403927,0.0007676108,0.0150568586
-0.0012925671,0.0245635443,64.0000000000,7.2000000000,0.0000000000,0.0004730102,-0.0000404043,0.0007682886,0.0151363266
-0.0012929365,0.0245852357,64.0000000000,9.0000000000,0.0000000000,0.0004754272,-0.0000404556,0.0007689538,0.0152136716
-0.0012945784,0.0246065210,64.0000000000,10.8000000000,0.0000000000,0.0004777405,-0.0000405338,0.0007696003,0.0152876974
-0.0012970829,0.0246272108,64.0000000000,12.6000000000,0.0000000000,0.0004799223,-0.0000406212,0.0007702235,0.0153575132
-0.0012998799,0.0246471505,64.0000000000,14.4000000000,0.0000000000,0.0004819641,-0.0000406979,0.0007708166,0.0077114259
-0.0006511667,0.0123330654,72.0000000000,0.0000000000,0.0000000000,0.0004605273,-0.0000524740,0.0008617340,0.0073684366
-0.0008395843,0.0137877443,72.0000000000,1.4000000000,0.0000000000,0.0004630009,-0.0000523173,0.0008623454,0.0148160280
-0.0016741549,0.0275950527,72.0000000000,2.8000000000,0.0000000000,0.0004655413,-0.0000522072,0.0008629796,0.0148973203
-0.0016706315,0.0276153475,72.0000000000,4.2000000000,0.0000000000,0.0004681037,-0.0000521413,0.0008636232,0.0149793175
-0.0016685229,0.0276359428,72.0000000000,5.6000000000,0.0000000000,0.0004706506,-0.0000521166,0.0008642685,0.0150608196
-0.0016677321,0.0276565915,72.0000000000,7.0000000000,0.0000000000,0.0004731451,-0.0000521281,0.0008649088,0.0151406443
-0.0016680986,0.0276770809,72.0000000000,8.4000000000,0.0000000000,0.0004755453,-0.0000521670,0.0008655375,0.0152174499
-0.0016693439,0.0276972003,72.0000000000,9.8000000000,0.0000000000,0.0004777976,-0.0000522178,0.0008661477,0.0152895222
-0.0016709692,0.0277167278,72.0000000000,11.2000000000,0.0000000000,0.0004798263,-0.0000522519,0.0008667314,0.0076772202
-0.0008360310,0.0138677022,80.0000000000,0.0000000000,0.0000000000,0.0004569419,-0.0000688797,0.0009580922,0.0073110702
-0.0011020755,0.0153294749,80.0000000000,1.0000000000,0.0000000000,0.0004594932,-0.0000687475,0.0009585732,0.0147037829
-0.0021999191,0.0306743425,80.0000000000,2.0000000000,0.0000000000,0.0004620307,-0.0000686544,0.0009590870,0.0147849815
-0.0021969420,0.0306907835,80.0000000000,3.0000000000,0.0000000000,0.0004645584,-0.0000685955,0.0009596169,0.0148658677
-0.0021950565,0.0307077416,80.0000000000,4.0000000000,0.0000000000,0.0004670800,-0.0000685706,0.0009601544,0.0149465593
-0.0021942600,0.0307249397,80.0000000000,5.0000000000,0.0000000000,0.0004695990,-0.0000685835,0.0009606928,0.0150271676
-0.0021946720,0.0307421711,80.0000000000,6.0000000000,0.0000000000,0.0004721190,-0.0000686420,0.0009612252,0.0151078066
-0.0021965432,0.0307592055,80.0000000000,7.0000000000,0.0000000000,0.0004746438,-0.0000687596,0.0009617399,0.0151886020
-0.0022003056,0.0307756758,80.0000000000,8.0000000000,0.0000000000,0.0004771782,-0.0000689592,0.0009622127,0.0076348508
-0.0011033472,0.0153954039,88.0000000000,0.0000000000,0.0000000000,0.0004536547,-0.0000932192,0.0010544910,0.0072584756
-0.0014915065,0.0168718555,88.0000000000,1.4000000000,0.0000000000,0.0004582306,-0.0000930876,0.0010550474,0.0146633806
-0.0029788040,0.0337615175,88.0000000000,2.8000000000,0.0000000000,0.0004627055,-0.0000929985,0.0010556221,0.0148065764
-0.0029759504,0.0337799057,88.0000000000,4.2000000000,0.0000000000,0.0004671357,-0.0000929512,0.0010562034,0.0149483437
-0.0029744379,0.0337985082,88.0000000000,5.6000000000,0.0000000000,0.0004715672,-0.0000929434,0.0010567839,0.0150901520
-0.0029741877,0.0338170864,88.0000000000,7.0000000000,0.0000000000,0.0004760438,-0.0000929695,0.0010573569,0.0152334028
-0.0029750238,0.0338354193,88.0000000000,8.4000000000,0.0000000000,0.0004806134,-0.0000930192,0.0010579151,0.0153796297
-0.0029766154,0.0338532823,88.0000000000,9.8000000000,0.0000000000,0.0004853351,-0.0000930738,0.0010584514,0.0155307228
-0.0029783626,0.0338704437,88.0000000000,11.2000000000,0.0000000000,0.0004902898,-0.0000930992,0.0010589586,0.0078446374
-0.0014895869,0.0169433373,96.0000000000,0.0000000000,0.0000000000,0.0004516832,-0.0001212444,0.0011510372,0.0072269305
-0.0019399098,0.0184165944,96.0000000000,1.8000000000,0.0000000000,0.0004581397,-0.0001211560,0.0011516064,0.0146604699
-0.0038769913,0.0368514042,96.0000000000,3.6000000000,0.0000000000,0.0004644968,-0.0001211028,0.0011521844,0.0148638972
-0.0038752889,0.0368699003,96.0000000000,5.4000000000,0.0000000000,0.0004708125,-0.0001210902,0.0011527620,0.0150659987
-0.0038748855,0.0368883827,96.0000000000,7.2000000000,0.0000000000,0.0004771359,-0.0001211170,0.0011533323,0.0152683503
-0.0038757448,0.0369066350,96.0000000000,9.0000000000,0.0000000000,0.0004835104,-0.0001211759,0.0011538892,0.0154723319
-0.0038776282,0.0369244550,96.0000000000,10.8000000000,0.0000000000,0.0004899718,-0.0001212534,0.0011544272,0.0156790971
-0.0038801074,0.0369416711,96.0000000000,12.6000000000,0.0000000000,0.0004965443,-0.0001213310,0.0011549427,0.0158894160
-0.0038825921,0.0369581655,96.0000000000,14.4000000000,0.0000000000,0.0005032281,-0.0001213892,0.0011554321,0.0080516503
-0.0019422266,0.0184869129,104.0000000000,0.0000000000,0.0000000000,0.0004505233,-0.0001509728,0.0012475749,0.0072083735
-0.0024155654,0.0199611984,104.0000000000,2.2000000000,0.0000000000,0.0004587551,-0.0001509090,0.0012481458,0.0146801647
-0.0048290889,0.0399406669,104.0000000000,4.4000000000,0.0000000000,0.0004668958,-0.0001508743,0.0012487205,0.0149406669
-0.0048279773,0.0399590553,104.0000000000,6.6000000000,0.0000000000,0.0004750004,-0.0001508721,0.0012492929,0.0152000120
-0.0048279088,0.0399773736,104.0000000000,8.8000000000,0.0000000000,0.0004831095,-0.0001509000,0.0012498585,0.0154595027
-0.0048287992,0.0399954727,104.0000000000,11.0000000000,0.0000000000,0.0004912553,-0.0001509498,0.0012504132,0.0157201708
-0.0048303921,0.0400132231,104.0000000000,13.2000000000,0.0000000000,0.0004994624,-0.0001510096,0.0012509541,0.0159827972
-0.0048323082,0.0400305303,104.0000000000,15.4000000000,0.0000000000,0.0005077498,-0.0001510658,0.0012514792,0.0162479927
-0.0048341071,0.0400473359,104.0000000000,17.6000000000,0.0000000000,0.0005161453,-0.0001511025,0.0012519874,0.0082583242
-0.0024176406,0.0200317987,112.0000000000,0.0000000000,0.0000000000,0.0004498173,-0.0001814610,0.0013440604,0.0071970769
-0.0029033763,0.0215049666,112.0000000000,2.6000000000,0.0000000000,0.0004597399,-0.0001814142,0.0013446453,0.0147116767
-0.0058052531,0.0430286484,112.0000000000,5.2000000000,0.0000000000,0.0004695885,-0.0001813884,0.0013452319,0.0150268316
-0.0058044272,0.0430474205,112.0000000000,7.8000000000,0.0000000000,0.0004794058,-0.0001813875,0.0013458163,0.0153409844
-0.0058043992,0.0430661201,112.0000000000,10.4000000000,0.0000000000,0.0004892238,-0.0001814097,0.0013463951,0.0156551625
-0.0058051120,0.0430846423,112.0000000000,13.0000000000,0.0000000000,0.0004990687,-0.0001814494,0.0013469654,0.0159701977
-0.0058063806,0.0431028934,112.0000000000,15.6000000000,0.0000000000,0.0005089618,-0.0001814980,0.0013475250,0.0162867785
-0.0058079363,0.0431207984,112.0000000000,18.2000000000,0.0000000000,0.0005189223,-0.0001815449,0.0013480720,0.0166055151
-0.0058094373,0.0431383031,112.0000000000,20.8000000000,0.0000000000,0.0005289665,-0.0001815759,0.0013486046,0.0084634638
-0.0029052141,0.0215776738,120.0000000000,0.0000000000,0.0000000000,0.0004493636,-0.0002123230,0.0014404906,0.0071898178
-0.0033971686,0.0230478491,120.0000000000,3.0000000000,0.0000000000,0.0004609330,-0.0002122878,0.0014411039,0.0147498569
-0.0067932094,0.0461153240,120.0000000000,6.0000000000,0.0000000000,0.0004724417,-0.0002122689,0.0014417179,0.0151181328
-0.0067926033,0.0461349718,120.0000000000,9.0000000000,0.0000000000,0.0004839242,-0.0002122692,0.0014423298,0.0154855730
-0.0067926145,0.0461545552,120.0000000000,12.0000000000,0.0000000000,0.0004954063,-0.0002122877,0.0014429375,0.0158530009
-0.0067932062,0.0461739986,120.0000000000,15.0000000000,0.0000000000,0.0005069094,-0.0002123199,0.0014435386,0.0162211015
-0.0067942360,0.0461932338,120.0000000000,18.0000000000,0.0000000000,0.0005184510,-0.0002123587,0.0014441315,0.0165904333
-0.0067954788,0.0462122066,120.0000000000,21.0000000000,0.0000000000,0.0005300442,-0.0002123952,0.0014447150,0.0169614153
-0.0067966463,0.0462308806,120.0000000000,24.0000000000,0.0000000000,0.0005417012,-0.0002124181,0.0014452887,0.0086672199
-0.0033986893,0.0231246188,128.0000000000,0.0000000000,0.0000000000,0.0004490668,-0.0002433835,0.0015368773,0.0071850695
-0.0038941355,0.0245900371,128.0000000000,3.4000000000,0.0000000000,0.0004622550,-0.0002433575,0.0015375302,0.0147921600
-0.0077874393,0.0492009655,128.0000000000,6.8000000000,0.0000000000,0.0004753925,-0.0002433436,0.0015381833,0.0152125589
-0.0077869945,0.0492218670,128.0000000000,10.2000000000,0.0000000000,0.0004885077,-0.0002433441,0.0015388350,0.0156322467
-0.0077870127,0.0492427199,128.0000000000,13.6000000000,0.0000000000,0.0005016221,-0.0002433583,0.0015394835,0.0160519061
-0.0077874641,0.0492634731,128.0000000000,17.0000000000,0.0000000000,0.0005147529,-0.0002433824,0.0015401275,0.0164720942
-0.0077882373,0.0492840797,128.0000000000,20.4000000000,0.0000000000,0.0005279137,-0.0002434113,0.0015407657,0.0168932375
-0.0077891617,0.0493045028,128.0000000000,23.8000000000,0.0000000000,0.0005411143,-0.0002434380,0.0015413975,0.0173156560
-0.0077900150,0.0493247192,128.0000000000,27.2000000000,0.0000000000,0.0005543620,-0.0002434549,0.0015420226,0.0088697918
-0.0038952784,0.0246723623,136.0000000000,0.0000000000,0.0000000000,0.0004488782,-0.0002745507,0.0016332320,0.0071820508
-0.0043928119,0.0261317122,136.0000000000,3.8000000000,0.0000000000,0.0004636635,-0.0002745327,0.0016339318,0.0148372308
-0.0087850463,0.0522858189,136.0000000000,7.6000000000,0.0000000000,0.0004784047,-0.0002745227,0.0016346321,0.0153089502
-0.0087847260,0.0523082265,136.0000000000,11.4000000000,0.0000000000,0.0004931268,-0.0002745225,0.0016353317,0.0157800587
-0.0087847199,0.0523306140,136.0000000000,15.2000000000,0.0000000000,0.0005078484,-0.0002745314,0.0016360297,0.0162511488
-0.0087850050,0.0523529496,136.0000000000,19.0000000000,0.0000000000,0.0005225843,-0.0002745467,0.0016367252,0.0167226977
-0.0087854946,0.0523752070,136.0000000000,22.8000000000,0.0000000000,0.0005373458,-0.0002745646,0.0016374178,0.0171950652
-0.0087860674,0.0523973684,136.0000000000,26.6000000000,0.0000000000,0.0005521385,-0.0002745819,0.0016381070,0.0176684307
-0.0087866204,0.0524194238,136.0000000000,30.4000000000,0.0000000000,0.0005669670,-0.0002745907,0.0016387917,0.0090714723
-0.0043934506,0.0262206680,144.0000000000,0.0000000000,0.0000000000,0.0004487718,-0.0003057668,0.0017295616,0.0071803494
-0.0048922691,0.0276729863,144.0000000000,4.2000000000,0.0000000000,0.0004651333,-0.0003057567,0.0017303129,0.0148842667
-0.0097842136,0.0553700142,144.0000000000,8.4000000000,0.0000000000,0.0004814571,-0.0003057516,0.0017310653,0.0154066274
-0.0097840502,0.0553940901,144.0000000000,12.6000000000,0.0000000000,0.0004977651,-0.0003057536,0.0017318180,0.0159284818
-0.0097841147,0.0554181744,144.0000000000,16.8000000000,0.0000000000,0.0005140731,-0.0003057615,0.0017325704,0.0164503383
-0.0097843674,0.0554422523,144.0000000000,21.0000000000,0.0000000000,0.0005303952,-0.0003057720,0.0017333224,0.0169726478
-0.0097847034,0.0554663160,144.0000000000,25.2000000000,0.0000000000,0.0005467437,-0.0003057809,0.0017340741,0.0174957979
-0.0097849900,0.0554903698,144.0000000000,29.4000000000,0.0000000000,0.0005631300,-0.0003057841,0.0017348259,0.0180201604
-0.0097850902,0.0555144297,144.0000000000,33.6000000000,0.0000000000,0.0005795427,-0.0003057956,0.0017355821,0.0092726838
-0.0048927299,0.0277693128,152.0000000000,0.0000000000,0.0000000000,0.0004487300,-0.0003369810,0.0018258664,0.0071796794
-0.0053916962,0.0292138629,152.0000000000,4.6000000000,0.0000000000,0.0004666491,-0.0003369801,0.0018266746,0.0149327727
-0.0107833644,0.0584535879,152.0000000000,9.2000000000,0.0000000000,0.0004845416,-0.0003369860,0.0018274831,0.0155053324
-0.0107835505,0.0584794588,152.0000000000,13.8000000000,0.0000000000,0.0005024202,-0.0003370004,0.0018282912,0.0160774472
-0.0107840121,0.0585053191,152.0000000000,18.4000000000,0.0000000000,0.0005202990,-0.0003370224,0.0018290993,0.0166495694
-0.0107847163,0.0585311766,152.0000000000,23.0000000000,0.0000000000,0.0005381927,-0.0003370492,0.0018299081,0.0172221677
-0.0107855755,0.0585570596,152.0000000000,27.6000000000,0.0000000000,0.0005561157,-0.0003370756,0.0018307181,0.0177957024
-0.0107864186,0.0585829805,152.0000000000,32.2000000000,0.0000000000,0.0005740799,-0.0003370914,0.0018315284,0.0183705576
-0.0107869252,0.0586089077,152.0000000000,36.8000000000,0.0000000000,0.0005921653,-0.0003370507,0.0018323428,0.0094746441
-0.0053928106,0.0293174841,160.0000000000,0.0000000000,0.0000000000,0.0004487225,-0.0003681570,0.0019221504,0.0035897804
-0.0029452562,0.0153772033,160.0000000000,5.0000000000,0.0000000000,0.0004681962,-0.0003681581,0.0019230231,0.0074911385
-0.0058905296,0.0307683704,160.0000000000,10.0000000000,0.0000000000,0.0004876521,-0.0003681684,0.0019238903,0.0078024336
-0.0058906938,0.0307822449,160.0000000000,15.0000000000,0.0000000000,0.0005070968,-0.0003681982,0.0019247511,0.0081135494
-0.0058911706,0.0307960173,160.0000000000,20.0000000000,0.0000000000,0.0005265458,-0.0003682542,0.0019256083,0.0084247328
-0.0058920679,0.0308097335,160.0000000000,25.0000000000,0.0000000000,0.0005460177,-0.0003683426,0.0019264651,0.0087362828
-0.0058934813,0.0308234409,160.0000000000,30.0000000000,0.0000000000,0.0005655347,-0.0003684744,0.0019273228,0.0090485557
-0.0058955909,0.0308371646,160.0000000000,35.0000000000,0.0000000000,0.0005851369,-0.0003686804,0.0019281725,0.0093621898
-0.0058988856,0.0308507603,160.0000000000,40.0000000000,0.0000000000,0.0006048430,-0.0003690286,0.0019289032,0.0048387442
-0.0029522292,0.0154312255,0.0000000000,0.0000000000,5.0000000000,0.0004094763,0.0000089077,-0.0000037452,0.0065516213
0.0001425235,-0.0000599239,0.0000000000,5.0000000000,5.0000000000,0.0004127409,0.0000089073,-0.0000027046,0.0132077099
0.0002850332,-0.0000865467,0.0000000000,10.0000000000,5.0000000000,0.0004160485,0.0000089045,-0.0000017383,0.0133135520
0.0002849429,-0.0000556244,0.0000000000,15.0000000000,5.0000000000,0.0004193888,0.0000088854,-0.0000008324,0.0134204410
0.0002843337,-0.0000266384,0.0000000000,20.0000000000,5.0000000000,0.0004227295,0.0000088477,0.0000000461,0.0135273455
0.0002831265,0.0000014743,0.0000000000,25.0000000000,5.0000000000,0.0004260405,0.0000088017,0.0000009360,0.0136332971
0.0002816544,0.0000299535,0.0000000000,30.0000000000,5.0000000000,0.0004293057,0.0000087633,0.0000018710,0.0137377831
0.0002804270,0.0000598730,0.0000000000,35.0000000000,5.0000000000,0.0004325304,0.0000087453,0.0000028695,0.0138409713
0.0002798503,0.0000918236,0.0000000000,40.0000000000,5.0000000000,0.0004357386,0.0000087453,0.0000039256,0.0069718172
0.0001399246,0.0000628093,8.0000000000,0.0000000000,5.0000000000,0.0004094428,0.0000037219,0.0000924383,0.0131021699
0.0001191017,0.0029580258,8.0000000000,4.6000000000,5.0000000000,0.0004124366,0.0000037301,0.0000934128,0.0263959438
0.0002387266,0.0059784188,8.0000000000,9.2000000000,5.0000000000,0.0004154942,0.0000037252,0.0000943649,0.0265916286
0.0002384122,0.0060393532,8.0000000000,13.8000000000,5.0000000000,0.0004185885,0.0000037088,0.0000952925,0.0267896629
0.0002373625,0.0060987170,8.0000000000,18.4000000000,5.0000000000,0.0004216862,0.0000036862,0.0000962053,0.0269879175
0.0002359173,0.0061571420,8.0000000000,23.0000000000,5.0000000000,0.0004247576,0.0000036626,0.0000971185,0.0271844873
0.0002344083,0.0062155809,8.0000000000,27.6000000000,5.0000000000,0.0004277830,0.0000036423,0.0000980465,0.0273781149
0.0002331066,0.0062749784,8.0000000000,32.2000000000,5.0000000000,0.0004307578,0.0000036282,0.0000989993,0.0275684980
0.0002322071,0.0063359541,8.0000000000,36.8000000000,5.0000000000,0.0004336953,0.0000036208,0.0000999743,0.0138782497
0.0001158666,0.0031991786,16.0000000000,0.0000000000,5.0000000000,0.0004092887,-0.0000014049,0.0001886570,0.0130972372
-0.0000449583,0.0060370253,16.0000000000,4.2000000000,5.0000000000,0.0004120492,-0.0000013676,0.0001895606,0.0263711497
-0.0000875265,0.0121318763,16.0000000000,8.4000000000,5.0000000000,0.0004148876,-0.0000013473,0.0001904695,0.0265528060
-0.0000862292,0.0121900493,16.0000000000,12.6000000000,5.0000000000,0.0004177618,-0.0000013473,0.0001913805,0.0267367540
-0.0000862290,0.0122483495,16.0000000000,16.8000000000,5.0000000000,0.0004206374,-0.0000013649,0.0001922907,0.0269207953
-0.0000873532,0.0123066064,16.0000000000,21.0000000000,5.0000000000,0.0004234863,-0.0000013945,0.0001931996,0.0271031220
-0.0000892490,0.0123647763,16.0000000000,25.2000000000,5.0000000000,0.0004262870,-0.0000014294,0.0001941075,0.0272823709
-0.0000914787,0.0124228788,16.0000000000,29.4000000000,5.0000000000,0.0004290271,-0.0000014616,0.0001950143,0.0274577314
-0.0000935429,0.0124809156,16.0000000000,33.6000000000,5.0000000000,0.0004317038,-0.0000014820,0.0001959191,0.0138145217
-0.0000474243,0.0062694117,24.0000000000,0.0000000000,5.0000000000,0.0004089050,-0.0000066520,0.0002849131,0.0130849601
-0.0002128636,0.0091172192,24.0000000000,3.8000000000,5.0000000000,0.0004115072,-0.0000065891,0.0002857473,0.0263364598
-0.0004217044,0.0182878284,24.0000000000,7.6000000000,5.0000000000,0.0004141783,-0.0000065517,0.0002865935,0.0265074130
-0.0004193057,0.0183419859,24.0000000000,11.4000000000,5.0000000000,0.0004168807,-0.0000065408,0.0002874496,0.0266803674
-0.0004186134,0.0183967731,24.0000000000,15.2000000000,5.0000000000,0.0004195797,-0.0000065544,0.0002883104,0.0268530978
-0.0004194800,0.0184518644,24.0000000000,19.0000000000,5.0000000000,0.0004222463,-0.0000065867,0.0002891703,0.0270237635
-0.0004215503,0.0185068991,24.0000000000,22.8000000000,5.0000000000,0.0004248577,-0.0000066297,0.0002900243,0.0271908931
-0.0004242978,0.0185615532,24.0000000000,26.6000000000,5.0000000000,0.0004273967,-0.0000066727,0.0002908687,0.0273533880
-0.0004270547,0.0186155942,24.0000000000,30.4000000000,5.0000000000,0.0004298524,-0.0000067032,0.0002917032,0.0137552775
-0.0002145039,0.0093345021,32.0000000000,0.0000000000,5.0000000000,0.0004082706,-0.0000122199,0.0003811763,0.0130646587
-0.0003910379,0.0121976417,32.0000000000,3.4000000000,5.0000000000,0.0004107725,-0.0000121377,0.0003819455,0.0262894400
-0.0007768151,0.0244445115,32.0000000000,6.8000000000,5.0000000000,0.0004133307,-0.0000120867,0.0003827239,0.0264531639
-0.0007735476,0.0244943267,32.0000000000,10.2000000000,5.0000000000,0.0004159119,-0.0000120675,0.0003835098,0.0266183645
-0.0007723221,0.0245446263,32.0000000000,13.6000000000,5.0000000000,0.0004184832,-0.0000120772,0.0003842988,0.0267829259
-0.0007729391,0.0245951250,32.0000000000,17.0000000000,5.0000000000,0.0004210153,-0.0000121093,0.0003850857,0.0269449822
-0.0007749957,0.0246454853,32.0000000000,20.4000000000,5.0000000000,0.0004234841,-0.0000121550,0.0003858654,0.0271029819
-0.0007779171,0.0246953854,32.0000000000,23.8000000000,5.0000000000,0.0004258703,-0.0000122031,0.0003866342,0.0272556979
-0.0007809993,0.0247445858,32.0000000000,27.2000000000,5.0000000000,0.0004281608,-0.0000122413,0.0003873914,0.0137011470
-0.0003917228,0.0123965240,40.0000000000,0.0000000000,5.0000000000,0.0004073919,-0.0000182948,0.0004774125,0.0130365408
-0.0005854347,0.0152772015,40.0000000000,3.0000000000,5.0000000000,0.0004098288,-0.0000181986,0.0004781248,0.0262290400
-0.0011647096,0.0305999900,40.0000000000,6.0000000000,5.0000000000,0.0004123150,-0.0000181370,0.0004788419,0.0263881584
-0.0011607697,0.0306458798,40.0000000000,9.0000000000,5.0000000000,0.0004148184,-0.0000181107,0.0004795621,0.0265483786
-0.0011590831,0.0306919734,40.0000000000,12.0000000000,5.0000000000,0.0004173062,-0.0000181163,0.0004802818,0.0267075958
-0.0011594424,0.0307380327,40.0000000000,15.0000000000,5.0000000000,0.0004197485,-0.0000181472,0.0004809968,0.0268639048
-0.0011614232,0.0307837952,40.0000000000,18.0000000000,5.0000000000,0.0004221199,-0.0000181941,0.0004817033,0.0270156715
-0.0011644247,0.0308290140,40.0000000000,21.0000000000,5.0000000000,0.0004244004,-0.0000182456,0.0004823984,0.0271616226
-0.0011677170,0.0308735000,40.0000000000,24.0000000000,5.0000000000,0.0004265766,-0.0000182899,0.0004830816,0.0136504513
-0.0005852767,0.0154586106,48.0000000000,0.0000000000,5.0000000000,0.0004062568,-0.0000250941,0.0005736083,0.0130002179
-0.0008030124,0.0183554661,48.0000000000,2.6000000000,5.0000000000,0.0004086543,-0.0000249868,0.0005742730,0.0261538729
-0.0015991549,0.0367534732,48.0000000000,5.2000000000,5.0000000000,0.0004110986,-0.0000249171,0.0005749397,0.0263103117
-0.0015946930,0.0367961403,48.0000000000,7.8000000000,5.0000000000,0.0004135576,-0.0000248853,0.0005756067,0.0264676866