TITLE="test case governed by poisson equation"
VARIABLES="x" "y" "z" "u" "v" "w" "sxx"  "syy" "szz"
ZONE T="flow-field", N=     1701,E=    1280,ET=BRICK, F=FEPOINT
0.0000000000,0.0000000000,0.0000000000,-0.0000167770,0.0000099584,-0.0000037533,-0.0001342157
0.0000796674,-0.0000300268,0.0000000000,5.0000000000,0.0000000000,-0.0000135004,0.0000099529,-0.0000027252,-0.0002160059
0.0001592464,-0.0000436026,0.0000000000,10.0000000000,0.0000000000,-0.0000101554,0.0000099336,-0.0000017563,-0.0001624865
0.0001589379,-0.0000281008,0.0000000000,15.0000000000,0.0000000000,-0.0000067580,0.0000099005,-0.0000008460,-0.0001081285
0.0001584083,-0.0000135363,0.0000000000,20.0000000000,0.0000000000,-0.0000033513,0.0000098615,0.0000000390,-0.0000536205
0.0001577839,0.0000006243,0.0000000000,25.0000000000,0.0000000000,0.0000000228,0.0000098275,0.0000009379,0.0000003650
0.0001572401,0.0000150063,0.0000000000,30.0000000000,0.0000000000,0.0000033380,0.0000098079,0.0000018824,0.0000534086
0.0001569271,0.0000301191,0.0000000000,35.0000000000,0.0000000000,0.0000065931,0.0000098048,0.0000028857,0.0001054892
0.0001568768,0.0000461716,0.0000000000,40.0000000000,0.0000000000,0.0000098159,0.0000098086,0.0000039306,0.0000785274
0.0000784687,0.0000314452,8.0000000000,0.0000000000,0.0000000000,-0.0000167987,0.0000047786,-0.0000048484,-0.0002687788
0.0000764573,-0.0000775748,8.0000000000,4.6000000000,0.0000000000,-0.0000137925,0.0000047807,-0.0000038805,-0.0004413595
0.0001529810,-0.0001241748,8.0000000000,9.2000000000,0.0000000000,-0.0000107020,0.0000047645,-0.0000029271,-0.0003424638
0.0001524648,-0.0000936670,8.0000000000,13.8000000000,0.0000000000,-0.0000075636,0.0000047373,-0.0000019937,-0.0002420357
0.0001515936,-0.0000637990,8.0000000000,18.4000000000,0.0000000000,-0.0000044155,0.0000047103,-0.0000010736,-0.0001412974
0.0001507287,-0.0000343554,8.0000000000,23.0000000000,0.0000000000,-0.0000012939,0.0000046907,-0.0000001541,-0.0000414049
0.0001501018,-0.0000049322,8.0000000000,27.6000000000,0.0000000000,0.0000017757,0.0000046807,0.0000007773,0.0000568232
0.0001497816,0.0000248746,8.0000000000,32.2000000000,0.0000000000,0.0000047844,0.0000046777,0.0000017281,0.0001531000
0.0001496869,0.0000552978,8.0000000000,36.8000000000,0.0000000000,0.0000077442,0.0000046782,0.0000026929,0.0001239080
0.0000748517,0.0000430862,16.0000000000,0.0000000000,0.0000000000,-0.0000169397,-0.0000003233,-0.0000059363,-0.0002710352
-0.0000051727,-0.0000949803,16.0000000000,4.2000000000,0.0000000000,-0.0000141714,-0.0000002887,-0.0000050199,-0.0004534832
-0.0000092377,-0.0001606355,16.0000000000,8.4000000000,0.0000000000,-0.0000113063,-0.0000002706,-0.0000041000,-0.0003618012
-0.0000086606,-0.0001312001,16.0000000000,12.6000000000,0.0000000000,-0.0000083987,-0.0000002737,-0.0000031794,-0.0002687570
-0.0000087598,-0.0001017399,16.0000000000,16.8000000000,0.0000000000,-0.0000054859,-0.0000002951,-0.0000022607,-0.0001755484
-0.0000094419,-0.0000723427,16.0000000000,21.0000000000,0.0000000000,-0.0000025995,-0.0000003280,-0.0000013452,-0.0000831855
-0.0000104969,-0.0000430464,16.0000000000,25.2000000000,0.0000000000,0.0000002359,-0.0000003649,-0.0000004331,0.0000075492
-0.0000116768,-0.0000138578,16.0000000000,29.4000000000,0.0000000000,0.0000030056,-0.0000003970,0.0000004754,0.0000961788
-0.0000127047,0.0000152124,16.0000000000,33.6000000000,0.0000000000,0.0000057046,-0.0000004129,0.0000013794,0.0000912740
-0.0000066061,0.0000220707,24.0000000000,0.0000000000,0.0000000000,-0.0000173094,-0.0000055369,-0.0000070029,-0.0002769511
-0.0000885898,-0.0001120463,24.0000000000,3.8000000000,0.0000000000,-0.0000147041,-0.0000054752,-0.0000061384,-0.0004705311
-0.0001752048,-0.0001964280,24.0000000000,7.6000000000,0.0000000000,-0.0000120126,-0.0000054376,-0.0000052672,-0.0003844027
-0.0001740032,-0.0001685505,24.0000000000,11.4000000000,0.0000000000,-0.0000092850,-0.0000054277,-0.0000043896,-0.0002971205
-0.0001736869,-0.0001404676,24.0000000000,15.2000000000,0.0000000000,-0.0000065594,-0.0000054449,-0.0000035102,-0.0002099013
-0.0001742357,-0.0001123254,24.0000000000,19.0000000000,0.0000000000,-0.0000038667,-0.0000054834,-0.0000026343,-0.0001237329
-0.0001754694,-0.0000842980,24.0000000000,22.8000000000,0.0000000000,-0.0000012313,-0.0000055336,-0.0000017668,-0.0000394019
-0.0001770759,-0.0000565390,24.0000000000,26.6000000000,0.0000000000,0.0000013283,-0.0000055822,-0.0000009107,0.0000425061
-0.0001786296,-0.0000291410,24.0000000000,30.4000000000,0.0000000000,0.0000037988,-0.0000056124,-0.0000000645,0.0000607803
-0.0000897989,-0.0000010312,32.0000000000,0.0000000000,0.0000000000,-0.0000179324,-0.0000110603,-0.0000080619,-0.0002869190
-0.0001769646,-0.0001289912,32.0000000000,3.4000000000,0.0000000000,-0.0000154316,-0.0000109778,-0.0000072511,-0.0004938115
-0.0003512903,-0.0002320360,32.0000000000,6.8000000000,0.0000000000,-0.0000128561,-0.0000109265,-0.0000064343,-0.0004113941
-0.0003496486,-0.0002058971,32.0000000000,10.2000000000,0.0000000000,-0.0000102531,-0.0000109092,-0.0000056131,-0.0003280989
-0.0003490949,-0.0001796186,32.0000000000,13.6000000000,0.0000000000,-0.0000076596,-0.0000109241,-0.0000047917,-0.0002451080
-0.0003495722,-0.0001533335,32.0000000000,17.0000000000,0.0000000000,-0.0000051069,-0.0000109650,-0.0000039753,-0.0001634204
-0.0003508788,-0.0001272102,32.0000000000,20.4000000000,0.0000000000,-0.0000026205,-0.0000110213,-0.0000031689,-0.0000838576
-0.0003526813,-0.0001014052,32.0000000000,23.8000000000,0.0000000000,-0.0000002213,-0.0000110792,-0.0000023755,-0.0000070806
-0.0003545350,-0.0000760162,32.0000000000,27.2000000000,0.0000000000,0.0000020731,-0.0000111216,-0.0000015949,0.0000331697
-0.0001779452,-0.0000255179,40.0000000000,0.0000000000,0.0000000000,-0.0000188013,-0.0000170672,-0.0000091451,-0.0003008209
-0.0002730752,-0.0001463215,40.0000000000,3.0000000000,0.0000000000,-0.0000163700,-0.0000169705,-0.0000083824,-0.0005238414
-0.0005430565,-0.0002682355,40.0000000000,6.0000000000,0.0000000000,-0.0000138661,-0.0000169098,-0.0000076147,-0.0004437138
-0.0005411142,-0.0002436702,40.0000000000,9.0000000000,0.0000000000,-0.0000113392,-0.0000168876,-0.0000068459,-0.0003628542
-0.0005404044,-0.0002190688,40.0000000000,12.0000000000,0.0000000000,-0.0000088276,-0.0000169015,-0.0000060801,-0.0002824828
-0.0005408481,-0.0001945619,40.0000000000,15.0000000000,0.0000000000,-0.0000063637,-0.0000169444,-0.0000053217,-0.0002036387
-0.0005422221,-0.0001702949,40.0000000000,18.0000000000,0.0000000000,-0.0000039752,-0.0000170056,-0.0000045750,-0.0001272049
-0.0005441808,-0.0001464000,40.0000000000,21.0000000000,0.0000000000,-0.0000016847,-0.0000170709,-0.0000038428,-0.0000539117
-0.0005462684,-0.0001229691,40.0000000000,24.0000000000,0.0000000000,0.0000004859,-0.0000171225,-0.0000031261,0.0000077740
-0.0002739602,-0.0000500177,48.0000000000,0.0000000000,0.0000000000,-0.0000199210,-0.0000237593,-0.0000102712,-0.0003187357
-0.0003801493,-0.0001643398,48.0000000000,2.6000000000,0.0000000000,-0.0000175348,-0.0000236526,-0.0000095465,-0.0005611124
-0.0007568830,-0.0003054874,48.0000000000,5.2000000000,0.0000000000,-0.0000150711,-0.0000235854,-0.0000088164,-0.0004822764
-0.0007547325,-0.0002821250,48.0000000000,7.8000000000,0.0000000000,-0.0000125844,-0.0000235604,-0.0000080872,-0.0004027020
-0.0007539344,-0.0002587897,48.0000000000,10.4000000000,0.0000000000,-0.0000101161,-0.0000235746,-0.0000073634,-0.0003237150
-0.0007543874,-0.0002356275,48.0000000000,13.0000000000,0.0000000000,-0.0000077005,-0.0000236201,-0.0000066494,-0.0002464167
-0.0007558433,-0.0002127802,48.0000000000,15.6000000000,0.0000000000,-0.0000053672,-0.0000236858,-0.0000059491,-0.0001717501
-0.0007579461,-0.0001903701,48.0000000000,18.2000000000,0.0000000000,-0.0000031429,-0.0000237576,-0.0000052653,-0.0001005727
-0.0007602417,-0.0001684903,48.0000000000,20.8000000000,0.0000000000,-0.0000010531,-0.0000238166,-0.0000046015,-0.0000168489
-0.0003810653,-0.0000736238,56.0000000000,0.0000000000,0.0000000000,-0.0000213461,-0.0000314389,-0.0000114387,-0.0003415380
-0.0005030227,-0.0001830193,56.0000000000,2.2000000000,0.0000000000,-0.0000189779,-0.0000313216,-0.0000107421,-0.0006072938
-0.0010022896,-0.0003437465,56.0000000000,4.4000000000,0.0000000000,-0.0000165245,-0.0000312488,-0.0000100379,-0.0005287827
-0.0009999616,-0.0003212117,56.0000000000,6.6000000000,0.0000000000,-0.0000140467,-0.0000312226,-0.0000093347,-0.0004494948
-0.0009991237,-0.0002987108,56.0000000000,8.8000000000,0.0000000000,-0.0000115907,-0.0000312392,-0.0000086383,-0.0003709016
-0.0009996545,-0.0002764257,56.0000000000,11.0000000000,0.0000000000,-0.0000091938,-0.0000312894,-0.0000079536,-0.0002942014
-0.0010012615,-0.0002545167,56.0000000000,13.2000000000,0.0000000000,-0.0000068861,-0.0000313600,-0.0000072847,-0.0002203545
-0.0010035213,-0.0002331106,56.0000000000,15.4000000000,0.0000000000,-0.0000046927,-0.0000314352,-0.0000066343,-0.0001501659
-0.0010059276,-0.0002122976,56.0000000000,17.6000000000,0.0000000000,-0.0000026470,-0.0000314964,-0.0000060057,-0.0000423517
-0.0005039425,-0.0000960911,64.0000000000,0.0000000000,0.0000000000,-0.0000232318,-0.0000406452,-0.0000126172,-0.0003717086
-0.0006503225,-0.0002018749,64.0000000000,1.8000000000,0.0000000000,-0.0000208318,-0.0000405135,-0.0000119476,-0.0006666163
-0.0012964310,-0.0003823231,64.0000000000,3.6000000000,0.0000000000,-0.0000183499,-0.0000404284,-0.0000112650,-0.0005871962
-0.0012937092,-0.0003604811,64.0000000000,5.4000000000,0.0000000000,-0.0000158431,-0.0000403927,-0.0000105812,-0.0005069800
-0.0012925671,-0.0003385975,64.0000000000,7.2000000000,0.0000000000,-0.0000133598,-0.0000404043,-0.0000099033,-0.0004275121
-0.0012929365,-0.0003169061,64.0000000000,9.0000000000,0.0000000000,-0.0000109427,-0.0000404556,-0.0000092382,-0.0003501670
-0.0012945784,-0.0002956208,64.0000000000,10.8000000000,0.0000000000,-0.0000086294,-0.0000405338,-0.0000085916,-0.0002761413
-0.0012970829,-0.0002749310,64.0000000000,12.6000000000,0.0000000000,-0.0000064477,-0.0000406212,-0.0000079685,-0.0002063254
-0.0012998799,-0.0002549913,64.0000000000,14.4000000000,0.0000000000,-0.0000044058,-0.0000406979,-0.0000073753,-0.0000704934
-0.0006511667,-0.0001180055,72.0000000000,0.0000000000,0.0000000000,-0.0000258427,-0.0000524740,-0.0000137319,-0.0004134827
-0.0008395843,-0.0002197105,72.0000000000,1.4000000000,0.0000000000,-0.0000233691,-0.0000523173,-0.0000131205,-0.0007478106
-0.0016741549,-0.0004198568,72.0000000000,2.8000000000,0.0000000000,-0.0000208287,-0.0000522072,-0.0000124863,-0.0006665183
-0.0016706315,-0.0003995620,72.0000000000,4.2000000000,0.0000000000,-0.0000182663,-0.0000521413,-0.0000118427,-0.0005845211
-0.0016685229,-0.0003789667,72.0000000000,5.6000000000,0.0000000000,-0.0000157193,-0.0000521166,-0.0000111974,-0.0005030191
-0.0016677321,-0.0003583180,72.0000000000,7.0000000000,0.0000000000,-0.0000132248,-0.0000521281,-0.0000105571,-0.0004231943
-0.0016680986,-0.0003378286,72.0000000000,8.4000000000,0.0000000000,-0.0000108246,-0.0000521670,-0.0000099284,-0.0003463888
-0.0016693439,-0.0003177092,72.0000000000,9.8000000000,0.0000000000,-0.0000085724,-0.0000522178,-0.0000093182,-0.0002743165
-0.0016709692,-0.0002981817,72.0000000000,11.2000000000,0.0000000000,-0.0000065437,-0.0000522519,-0.0000087345,-0.0001046991
-0.0008360310,-0.0001397525,80.0000000000,0.0000000000,0.0000000000,-0.0000294281,-0.0000688797,-0.0000146477,-0.0004708491
-0.0011020755,-0.0002343637,80.0000000000,1.0000000000,0.0000000000,-0.0000268767,-0.0000687475,-0.0000141667,-0.0008600557
-0.0021999191,-0.0004533347,80.0000000000,2.0000000000,0.0000000000,-0.0000243393,-0.0000686544,-0.0000136529,-0.0007788571
-0.0021969420,-0.0004368937,80.0000000000,3.0000000000,0.0000000000,-0.0000218116,-0.0000685955,-0.0000131230,-0.0006979709
-0.0021950565,-0.0004199357,80.0000000000,4.0000000000,0.0000000000,-0.0000192900,-0.0000685706,-0.0000125855,-0.0006172794
-0.0021942600,-0.0004027375,80.0000000000,5.0000000000,0.0000000000,-0.0000167710,-0.0000685835,-0.0000120471,-0.0005366710
-0.0021946720,-0.0003855062,80.0000000000,6.0000000000,0.0000000000,-0.0000142510,-0.0000686420,-0.0000115147,-0.0004560320
-0.0021965432,-0.0003684718,80.0000000000,7.0000000000,0.0000000000,-0.0000117261,-0.0000687596,-0.0000110000,-0.0003752366
-0.0022003056,-0.0003520014,80.0000000000,8.0000000000,0.0000000000,-0.0000091918,-0.0000689592,-0.0000105272,-0.0001470685
-0.0011033472,-0.0001684347,88.0000000000,0.0000000000,0.0000000000,-0.0000327152,-0.0000932192,-0.0000155229,-0.0005234437
-0.0014915065,-0.0002483670,88.0000000000,1.4000000000,0.0000000000,-0.0000281393,-0.0000930876,-0.0000149665,-0.0009004580
-0.0029788040,-0.0004789275,88.0000000000,2.8000000000,0.0000000000,-0.0000236644,-0.0000929985,-0.0000143919,-0.0007572623
-0.0029759504,-0.0004605393,88.0000000000,4.2000000000,0.0000000000,-0.0000192342,-0.0000929512,-0.0000138105,-0.0006154949
-0.0029744379,-0.0004419368,88.0000000000,5.6000000000,0.0000000000,-0.0000148027,-0.0000929434,-0.0000132300,-0.0004736867
-0.0029741877,-0.0004233586,88.0000000000,7.0000000000,0.0000000000,-0.0000103261,-0.0000929695,-0.0000126571,-0.0003304359
-0.0029750238,-0.0004050257,88.0000000000,8.4000000000,0.0000000000,-0.0000057565,-0.0000930192,-0.0000120988,-0.0001842089
-0.0029766154,-0.0003871627,88.0000000000,9.8000000000,0.0000000000,-0.0000010349,-0.0000930738,-0.0000115625,-0.0000331159
-0.0029783626,-0.0003700013,88.0000000000,11.2000000000,0.0000000000,0.0000039199,-0.0000930992,-0.0000110553,0.0000627181
-0.0014895869,-0.0001768852,96.0000000000,0.0000000000,0.0000000000,-0.0000346868,-0.0001212444,-0.0000162507,-0.0005549888
-0.0019399098,-0.0002600119,96.0000000000,1.8000000000,0.0000000000,-0.0000282303,-0.0001211560,-0.0000156815,-0.0009033687
-0.0038769913,-0.0005018085,96.0000000000,3.6000000000,0.0000000000,-0.0000218732,-0.0001211028,-0.0000151035,-0.0006999415
-0.0038752889,-0.0004833125,96.0000000000,5.4000000000,0.0000000000,-0.0000155575,-0.0001210902,-0.0000145259,-0.0004978399
-0.0038748855,-0.0004648300,96.0000000000,7.2000000000,0.0000000000,-0.0000092340,-0.0001211170,-0.0000139556,-0.0002954883
-0.0038757448,-0.0004465777,96.0000000000,9.0000000000,0.0000000000,-0.0000028596,-0.0001211759,-0.0000133987,-0.0000915068
-0.0038776282,-0.0004287577,96.0000000000,10.8000000000,0.0000000000,0.0000036018,-0.0001212534,-0.0000128607,0.0001152584
-0.0038801074,-0.0004115416,96.0000000000,12.6000000000,0.0000000000,0.0000101743,-0.0001213310,-0.0000123452,0.0003255774
-0.0038825921,-0.0003950472,96.0000000000,14.4000000000,0.0000000000,0.0000168582,-0.0001213892,-0.0000118558,0.0002697310
-0.0019422266,-0.0001896935,104.0000000000,0.0000000000,0.0000000000,-0.0000358466,-0.0001509728,-0.0000169870,-0.0005735458
-0.0024155654,-0.0002717918,104.0000000000,2.2000000000,0.0000000000,-0.0000276148,-0.0001509090,-0.0000164160,-0.0008836740
-0.0048290889,-0.0005253135,104.0000000000,4.4000000000,0.0000000000,-0.0000194741,-0.0001508743,-0.0000158414,-0.0006231718
-0.0048279773,-0.0005069252,104.0000000000,6.6000000000,0.0000000000,-0.0000113696,-0.0001508721,-0.0000152690,-0.0003638266
-0.0048279088,-0.0004886069,104.0000000000,8.8000000000,0.0000000000,-0.0000032605,-0.0001509000,-0.0000147034,-0.0001043359
-0.0048287992,-0.0004705078,104.0000000000,11.0000000000,0.0000000000,0.0000048854,-0.0001509498,-0.0000141487,0.0001563322
-0.0048303921,-0.0004527573,104.0000000000,13.2000000000,0.0000000000,0.0000130925,-0.0001510096,-0.0000136078,0.0004189586
-0.0048323082,-0.0004354502,104.0000000000,15.4000000000,0.0000000000,0.0000213798,-0.0001510658,-0.0000130826,0.0006841541
-0.0048341071,-0.0004186445,104.0000000000,17.6000000000,0.0000000000,0.0000297753,-0.0001511025,-0.0000125745,0.0004764049
-0.0024176406,-0.0002011915,112.0000000000,0.0000000000,0.0000000000,-0.0000365527,-0.0001814610,-0.0000177755,-0.0005848424
-0.0029033763,-0.0002844075,112.0000000000,2.6000000000,0.0000000000,-0.0000266301,-0.0001814142,-0.0000171906,-0.0008521619
-0.0058052531,-0.0005500997,112.0000000000,5.2000000000,0.0000000000,-0.0000167815,-0.0001813884,-0.0000166040,-0.0005370070
-0.0058044272,-0.0005313276,112.0000000000,7.8000000000,0.0000000000,-0.0000069642,-0.0001813875,-0.0000160196,-0.0002228542
-0.0058043992,-0.0005126280,112.0000000000,10.4000000000,0.0000000000,0.0000028539,-0.0001814097,-0.0000154408,0.0000913239
-0.0058051120,-0.0004941059,112.0000000000,13.0000000000,0.0000000000,0.0000126987,-0.0001814494,-0.0000148705,0.0004063591
-0.0058063806,-0.0004758547,112.0000000000,15.6000000000,0.0000000000,0.0000225919,-0.0001814980,-0.0000143109,0.0007229399
-0.0058079363,-0.0004579497,112.0000000000,18.2000000000,0.0000000000,0.0000325524,-0.0001815449,-0.0000137639,0.0010416765
-0.0058094373,-0.0004404451,112.0000000000,20.8000000000,0.0000000000,0.0000425965,-0.0001815759,-0.0000132313,0.0006815445
-0.0029052141,-0.0002117003,120.0000000000,0.0000000000,0.0000000000,-0.0000370063,-0.0002123230,-0.0000186193,-0.0005921015
-0.0033971686,-0.0002979089,120.0000000000,3.0000000000,0.0000000000,-0.0000254369,-0.0002122878,-0.0000180060,-0.0008139817
-0.0067932094,-0.0005761919,120.0000000000,6.0000000000,0.0000000000,-0.0000139283,-0.0002122689,-0.0000173920,-0.0004457058
-0.0067926033,-0.0005565440,120.0000000000,9.0000000000,0.0000000000,-0.0000024458,-0.0002122692,-0.0000167800,-0.0000782657
-0.0067926145,-0.0005369607,120.0000000000,12.0000000000,0.0000000000,0.0000090363,-0.0002122877,-0.0000161724,0.0002891623
-0.0067932062,-0.0005175173,120.0000000000,15.0000000000,0.0000000000,0.0000205395,-0.0002123199,-0.0000155713,0.0006572629
-0.0067942360,-0.0004982821,120.0000000000,18.0000000000,0.0000000000,0.0000320811,-0.0002123587,-0.0000149784,0.0010265947
-0.0067954788,-0.0004793093,120.0000000000,21.0000000000,0.0000000000,0.0000436743,-0.0002123952,-0.0000143949,0.0013975767
-0.0067966463,-0.0004606353,120.0000000000,24.0000000000,0.0000000000,0.0000553313,-0.0002124181,-0.0000138212,0.0008853006
-0.0033986893,-0.0002211392,128.0000000000,0.0000000000,0.0000000000,-0.0000373031,-0.0002433835,-0.0000195065,-0.0005968498
-0.0038941355,-0.0003121047,128.0000000000,3.4000000000,0.0000000000,-0.0000241150,-0.0002433575,-0.0000188537,-0.0007716786
-0.0077874393,-0.0006033181,128.0000000000,6.8000000000,0.0000000000,-0.0000109775,-0.0002433436,-0.0000182005,-0.0003512797
-0.0077869945,-0.0005824166,128.0000000000,10.2000000000,0.0000000000,0.0000021378,-0.0002433441,-0.0000175489,0.0000684081
-0.0077870127,-0.0005615637,128.0000000000,13.6000000000,0.0000000000,0.0000152521,-0.0002433583,-0.0000169003,0.0004880674
-0.0077874641,-0.0005408106,128.0000000000,17.0000000000,0.0000000000,0.0000283830,-0.0002433824,-0.0000162564,0.0009082556
-0.0077882373,-0.0005202039,128.0000000000,20.4000000000,0.0000000000,0.0000415437,-0.0002434113,-0.0000156181,0.0013293989
-0.0077891617,-0.0004997808,128.0000000000,23.8000000000,0.0000000000,0.0000547443,-0.0002434380,-0.0000149864,0.0017518174
-0.0077900150,-0.0004795644,128.0000000000,27.2000000000,0.0000000000,0.0000679920,-0.0002434549,-0.0000143612,0.0010878725
-0.0038952784,-0.0002297795,136.0000000000,0.0000000000,0.0000000000,-0.0000374918,-0.0002745507,-0.0000204258,-0.0005998685
-0.0043928119,-0.0003268135,136.0000000000,3.8000000000,0.0000000000,-0.0000227065,-0.0002745327,-0.0000197260,-0.0007266078
-0.0087850463,-0.0006312324,136.0000000000,7.6000000000,0.0000000000,-0.0000079653,-0.0002745227,-0.0000190258,-0.0002548884
-0.0087847260,-0.0006088248,136.0000000000,11.4000000000,0.0000000000,0.0000067569,-0.0002745225,-0.0000183262,0.0002162201
-0.0087847199,-0.0005864373,136.0000000000,15.2000000000,0.0000000000,0.0000214784,-0.0002745314,-0.0000176282,0.0006873101
-0.0087850050,-0.0005641017,136.0000000000,19.0000000000,0.0000000000,0.0000362143,-0.0002745467,-0.0000169326,0.0011588590
-0.0087854946,-0.0005418443,136.0000000000,22.8000000000,0.0000000000,0.0000509758,-0.0002745646,-0.0000162401,0.0016312266
-0.0087860674,-0.0005196829,136.0000000000,26.6000000000,0.0000000000,0.0000657685,-0.0002745819,-0.0000155509,0.0021045920
-0.0087866204,-0.0004976275,136.0000000000,30.4000000000,0.0000000000,0.0000805971,-0.0002745907,-0.0000148661,0.0012895530
-0.0043934506,-0.0002378577,144.0000000000,0.0000000000,0.0000000000,-0.0000375981,-0.0003057668,-0.0000213702,-0.0006015699
-0.0048922691,-0.0003419232,144.0000000000,4.2000000000,0.0000000000,-0.0000212366,-0.0003057567,-0.0000206189,-0.0006795719
-0.0097842136,-0.0006598048,144.0000000000,8.4000000000,0.0000000000,-0.0000049129,-0.0003057516,-0.0000198665,-0.0001572112
-0.0097840502,-0.0006357290,144.0000000000,12.6000000000,0.0000000000,0.0000113951,-0.0003057536,-0.0000191139,0.0003646431
-0.0097841147,-0.0006116446,144.0000000000,16.8000000000,0.0000000000,0.0000277031,-0.0003057615,-0.0000183615,0.0008864996
-0.0097843674,-0.0005875668,144.0000000000,21.0000000000,0.0000000000,0.0000440253,-0.0003057720,-0.0000176095,0.0014088092
-0.0097847034,-0.0005635030,144.0000000000,25.2000000000,0.0000000000,0.0000603737,-0.0003057809,-0.0000168578,0.0019319593
-0.0097849900,-0.0005394492,144.0000000000,29.4000000000,0.0000000000,0.0000767601,-0.0003057841,-0.0000161059,0.0024563218
-0.0097850902,-0.0005153893,144.0000000000,33.6000000000,0.0000000000,0.0000931728,-0.0003057956,-0.0000153498,0.0014907644
-0.0048927299,-0.0002455967,152.0000000000,0.0000000000,0.0000000000,-0.0000376400,-0.0003369810,-0.0000223394,-0.0006022399
-0.0053916962,-0.0003574305,152.0000000000,4.6000000000,0.0000000000,-0.0000197208,-0.0003369801,-0.0000215312,-0.0006310659
-0.0107833644,-0.0006889989,152.0000000000,9.2000000000,0.0000000000,-0.0000018283,-0.0003369860,-0.0000207227,-0.0000585062
-0.0107835505,-0.0006631280,152.0000000000,13.8000000000,0.0000000000,0.0000160503,-0.0003370004,-0.0000199146,0.0005136086
-0.0107840121,-0.0006372677,152.0000000000,18.4000000000,0.0000000000,0.0000339291,-0.0003370224,-0.0000191066,0.0010857308
-0.0107847163,-0.0006114102,152.0000000000,23.0000000000,0.0000000000,0.0000518228,-0.0003370492,-0.0000182977,0.0016583291
-0.0107855755,-0.0005855271,152.0000000000,27.6000000000,0.0000000000,0.0000697457,-0.0003370756,-0.0000174877,0.0022318638
-0.0107864186,-0.0005596063,152.0000000000,32.2000000000,0.0000000000,0.0000877100,-0.0003370914,-0.0000166775,0.0028067189
-0.0107869252,-0.0005336791,152.0000000000,36.8000000000,0.0000000000,0.0001057953,-0.0003370507,-0.0000158631,0.0016927248
-0.0053928106,-0.0002538092,160.0000000000,0.0000000000,0.0000000000,-0.0000376474,-0.0003681570,-0.0000233294,-0.0003011793
-0.0029452562,-0.0001866353,160.0000000000,5.0000000000,0.0000000000,-0.0000181738,-0.0003681581,-0.0000224567,-0.0002907808
-0.0058905296,-0.0003593069,160.0000000000,10.0000000000,0.0000000000,0.0000012821,-0.0003681684,-0.0000215895,0.0000205143
-0.0058906938,-0.0003454324,160.0000000000,15.0000000000,0.0000000000,0.0000207269,-0.0003681982,-0.0000207287,0.0003316301
-0.0058911706,-0.0003316600,160.0000000000,20.0000000000,0.0000000000,0.0000401758,-0.0003682542,-0.0000198715,0.0006428135
-0.0058920679,-0.0003179438,160.0000000000,25.0000000000,0.0000000000,0.0000596477,-0.0003683426,-0.0000190148,0.0009543634
-0.0058934813,-0.0003042363,160.0000000000,30.0000000000,0.0000000000,0.0000791648,-0.0003684744,-0.0000181570,0.0012666364
-0.0058955909,-0.0002905126,160.0000000000,35.0000000000,0.0000000000,0.0000987669,-0.0003686804,-0.0000173073,0.0015802705
-0.0058988856,-0.0002769170,160.0000000000,40.0000000000,0.0000000000,0.0001184731,-0.0003690286,-0.0000165766,0.0009477845
-0.0029522292,-0.0001326131,0.0000000000,0.0000000000,5.0000000000,-0.0000160974,0.0000089077,-0.0000037452,-0.0002575581
0.0001425235,-0.0000599239,0.0000000000,5.0000000000,5.0000000000,-0.0000128328,0.0000089073,-0.0000027046,-0.0004106489
0.0002850332,-0.0000865467,0.0000000000,10.0000000000,5.0000000000,-0.0000095252,0.0000089045,-0.0000017383,-0.0003048068
0.0002849429,-0.0000556244,0.0000000000,15.0000000000,5.0000000000,-0.0000061849,0.0000088854,-0.0000008324,-0.0001979178
0.0002843337,-0.0000266384,0.0000000000,20.0000000000,5.0000000000,-0.0000028442,0.0000088477,0.0000000461,-0.0000910133
0.0002831265,0.0000014743,0.0000000000,25.0000000000,5.0000000000,0.0000004668,0.0000088017,0.0000009360,0.0000149383
0.0002816544,0.0000299535,0.0000000000,30.0000000000,5.0000000000,0.0000037320,0.0000087633,0.0000018710,0.0001194243
0.0002804270,0.0000598730,0.0000000000,35.0000000000,5.0000000000,0.0000069566,0.0000087453,0.0000028695,0.0002226125
0.0002798503,0.0000918236,0.0000000000,40.0000000000,5.0000000000,0.0000101649,0.0000087453,0.0000039256,0.0001626378
0.0001399246,0.0000628093,8.0000000000,0.0000000000,5.0000000000,-0.0000161309,0.0000037219,-0.0000048357,-0.0005161889
0.0001191017,-0.0001547419,8.0000000000,4.6000000000,5.0000000000,-0.0000131371,0.0000037301,-0.0000038612,-0.0008407738
0.0002387266,-0.0002471166,8.0000000000,9.2000000000,5.0000000000,-0.0000100795,0.0000037252,-0.0000029091,-0.0006450890
0.0002384122,-0.0001861823,8.0000000000,13.8000000000,5.0000000000,-0.0000069852,0.0000037088,-0.0000019815,-0.0004470547
0.0002373625,-0.0001268184,8.0000000000,18.4000000000,5.0000000000,-0.0000038875,0.0000036862,-0.0000010686,-0.0002488001
0.0002359173,-0.0000683934,8.0000000000,23.0000000000,5.0000000000,-0.0000008161,0.0000036626,-0.0000001555,-0.0000522303
0.0002344083,-0.0000099546,8.0000000000,27.6000000000,5.0000000000,0.0000022093,0.0000036423,0.0000007725,0.0001413973
0.0002331066,0.0000494430,8.0000000000,32.2000000000,5.0000000000,0.0000051841,0.0000036282,0.0000017253,0.0003317804
0.0002322071,0.0001104186,8.0000000000,36.8000000000,5.0000000000,0.0000081216,0.0000036208,0.0000027003,0.0002598909
0.0001158666,0.0000864109,16.0000000000,0.0000000000,5.0000000000,-0.0000162850,-0.0000014049,-0.0000058909,-0.0005211216
-0.0000449583,-0.0001885102,16.0000000000,4.2000000000,5.0000000000,-0.0000135245,-0.0000013676,-0.0000049874,-0.0008655679
-0.0000875265,-0.0003191946,16.0000000000,8.4000000000,5.0000000000,-0.0000106861,-0.0000013473,-0.0000040785,-0.0006839116
-0.0000862292,-0.0002610216,16.0000000000,12.6000000000,5.0000000000,-0.0000078119,-0.0000013473,-0.0000031675,-0.0004999636
-0.0000862290,-0.0002027214,16.0000000000,16.8000000000,5.0000000000,-0.0000049363,-0.0000013649,-0.0000022573,-0.0003159223
-0.0000873532,-0.0001444645,16.0000000000,21.0000000000,5.0000000000,-0.0000020874,-0.0000013945,-0.0000013484,-0.0001335956
-0.0000892490,-0.0000862946,16.0000000000,25.2000000000,5.0000000000,0.0000007133,-0.0000014294,-0.0000004405,0.0000456533
-0.0000914787,-0.0000281921,16.0000000000,29.4000000000,5.0000000000,0.0000034533,-0.0000014616,0.0000004663,0.0002210138
-0.0000935429,0.0000298447,16.0000000000,33.6000000000,5.0000000000,0.0000061301,-0.0000014820,0.0000013711,0.0001961629
-0.0000474243,0.0000438762,24.0000000000,0.0000000000,5.0000000000,-0.0000166687,-0.0000066520,-0.0000069089,-0.0005333987
-0.0002128636,-0.0002210840,24.0000000000,3.8000000000,5.0000000000,-0.0000140665,-0.0000065891,-0.0000060747,-0.0009002578
-0.0004217044,-0.0003887780,24.0000000000,7.6000000000,5.0000000000,-0.0000113954,-0.0000065517,-0.0000052284,-0.0007293046
-0.0004193057,-0.0003346205,24.0000000000,11.4000000000,5.0000000000,-0.0000086930,-0.0000065408,-0.0000043724,-0.0005563502
-0.0004186134,-0.0002798333,24.0000000000,15.2000000000,5.0000000000,-0.0000059941,-0.0000065544,-0.0000035116,-0.0003836198
-0.0004194800,-0.0002247419,24.0000000000,19.0000000000,5.0000000000,-0.0000033274,-0.0000065867,-0.0000026517,-0.0002129541
-0.0004215503,-0.0001697072,24.0000000000,22.8000000000,5.0000000000,-0.0000007160,-0.0000066297,-0.0000017977,-0.0000458245
-0.0004242978,-0.0001150532,24.0000000000,26.6000000000,5.0000000000,0.0000018230,-0.0000066727,-0.0000009533,0.0001166704
-0.0004270547,-0.0000610121,24.0000000000,30.4000000000,5.0000000000,0.0000042787,-0.0000067032,-0.0000001188,0.0001369187
-0.0002145039,-0.0000038011,32.0000000000,0.0000000000,5.0000000000,-0.0000173031,-0.0000122199,-0.0000079197,-0.0005537001
-0.0003910379,-0.0002534292,32.0000000000,3.4000000000,5.0000000000,-0.0000148012,-0.0000121377,-0.0000071505,-0.0009472776
-0.0007768151,-0.0004576303,32.0000000000,6.8000000000,5.0000000000,-0.0000122430,-0.0000120867,-0.0000063721,-0.0007835537
-0.0007735476,-0.0004078151,32.0000000000,10.2000000000,5.0000000000,-0.0000096618,-0.0000120675,-0.0000055862,-0.0006183531
-0.0007723221,-0.0003575155,32.0000000000,13.6000000000,5.0000000000,-0.0000070905,-0.0000120772,-0.0000047971,-0.0004537917
-0.0007729391,-0.0003070168,32.0000000000,17.0000000000,5.0000000000,-0.0000045584,-0.0000121093,-0.0000040103,-0.0002917354
-0.0007749957,-0.0002566565,32.0000000000,20.4000000000,5.0000000000,-0.0000020896,-0.0000121550,-0.0000032306,-0.0001337357
-0.0007779171,-0.0002067564,32.0000000000,23.8000000000,5.0000000000,0.0000002966,-0.0000122031,-0.0000024618,0.0000189803
-0.0007809993,-0.0001575561,32.0000000000,27.2000000000,5.0000000000,0.0000025871,-0.0000122413,-0.0000017046,0.0000827882
-0.0003917228,-0.0000545469,40.0000000000,0.0000000000,5.0000000000,-0.0000181818,-0.0000182948,-0.0000089574,-0.0005818180
-0.0005854347,-0.0002866371,40.0000000000,3.0000000000,5.0000000000,-0.0000157450,-0.0000181986,-0.0000082451,-0.0010076776
-0.0011647096,-0.0005276872,40.0000000000,6.0000000000,5.0000000000,-0.0000132587,-0.0000181370,-0.0000075281,-0.0008485592
-0.0011607697,-0.0004817975,40.0000000000,9.0000000000,5.0000000000,-0.0000107553,-0.0000181107,-0.0000068079,-0.0006883390
-0.0011590831,-0.0004357038,40.0000000000,12.0000000000,5.0000000000,-0.0000082675,-0.0000181163,-0.0000060882,-0.0005291218
-0.0011594424,-0.0003896445,40.0000000000,15.0000000000,5.0000000000,-0.0000058252,-0.0000181472,-0.0000053732,-0.0003728128
-0.0011614232,-0.0003438820,40.0000000000,18.0000000000,5.0000000000,-0.0000034538,-0.0000181941,-0.0000046666,-0.0002210461