TITLE="erjiesimianti"
VARIABLES="X""Y""Z""U""V""W""M"
ZONE T="flow-field",N=     471,E=    1421,ET=TETRAHEDRON,F=FEPOINT
    2.500000e+00    2.500000e+00    8.500000e+01   -2.435814e-03   -5.568798e-02   -8.958250e-04    5.574842e-02
    1.000000e+01    2.500000e+00    8.500000e+01   -2.520575e-03   -5.812322e-02   -4.083938e-04    5.817928e-02
    1.000000e+01    2.500000e+00    0.000000e+00   -1.527086e-12   -3.098865e-12    2.863691e-11    2.884454e-11
    2.500000e+00    2.500000e+00    0.000000e+00    4.604051e-12   -1.408479e-11    1.241959e-12    1.487014e-11
    1.000000e+01    0.000000e+00    8.500000e+01   -3.321316e-03   -5.812265e-02   -2.913973e-03    5.829035e-02
    1.000000e+01    0.000000e+00    0.000000e+00    1.108150e-11    4.236083e-12    5.526834e-12    1.308778e-11
    2.500000e+00    1.000000e+01    8.500000e+01    1.218276e-04   -5.553699e-02    6.233269e-03    5.588583e-02
    2.500000e+00    1.000000e+01    0.000000e+00   -1.343394e-12   -8.766791e-12    2.283378e-11    2.449577e-11
    0.000000e+00    0.000000e+00    8.500000e+01   -3.364314e-03   -5.472059e-02   -3.478921e-03    5.493418e-02
    0.000000e+00    0.000000e+00    0.000000e+00    5.487749e-12    1.256890e-12   -2.699869e-12    6.243754e-12
    0.000000e+00    1.000000e+01    0.000000e+00    1.254305e-11    3.128053e-11   -1.511839e-11    3.693731e-11
    0.000000e+00    1.000000e+01    8.500000e+01    1.199900e-04   -5.470876e-02    6.179074e-03    5.505673e-02
    5.000000e+00    2.500000e+00    8.500000e+01   -2.499488e-03   -5.650914e-02   -7.107187e-04    5.656885e-02
    7.500000e+00    2.500000e+00    8.500000e+01   -2.518775e-03   -5.732206e-02   -5.565008e-04    5.738007e-02
    1.000000e+01    2.500000e+00    8.196429e+01   -2.347563e-03   -5.507728e-02   -4.104480e-04    5.512882e-02
    1.000000e+01    2.500000e+00    7.892857e+01   -2.187682e-03   -5.203143e-02   -4.118152e-04    5.207903e-02
    1.000000e+01    2.500000e+00    7.589286e+01   -2.036264e-03   -4.899551e-02   -4.110437e-04    4.903952e-02
    1.000000e+01    2.500000e+00    7.285714e+01   -1.889475e-03   -4.597943e-02   -4.068612e-04    4.602003e-02
    1.000000e+01    2.500000e+00    6.982143e+01   -1.745416e-03   -4.299189e-02   -4.016146e-04    4.302918e-02
    1.000000e+01    2.500000e+00    6.678571e+01   -1.604329e-03   -4.004019e-02   -3.948423e-04    4.007426e-02
    1.000000e+01    2.500000e+00    6.375000e+01   -1.466186e-03   -3.713268e-02   -3.869888e-04    3.716363e-02
    1.000000e+01    2.500000e+00    6.071429e+01   -1.331464e-03   -3.427683e-02   -3.778718e-04    3.430476e-02
    1.000000e+01    2.500000e+00    5.767857e+01   -1.200552e-03   -3.148034e-02   -3.675961e-04    3.150537e-02
    1.000000e+01    2.500000e+00    5.464286e+01   -1.073749e-03   -2.875104e-02   -3.563454e-04    2.877329e-02
    1.000000e+01    2.500000e+00    5.160714e+01   -9.515511e-04   -2.609661e-02   -3.436671e-04    2.611621e-02
    1.000000e+01    2.500000e+00    4.857143e+01   -8.344382e-04   -2.352440e-02   -3.296752e-04    2.354151e-02
    1.000000e+01    2.500000e+00    4.553571e+01   -7.226974e-04   -2.104207e-02   -3.149551e-04    2.105684e-02
    1.000000e+01    2.500000e+00    4.250000e+01   -6.171290e-04   -1.865665e-02   -2.987639e-04    1.866925e-02
    1.000000e+01    2.500000e+00    3.946429e+01   -5.179485e-04   -1.637597e-02   -2.813651e-04    1.638657e-02
    1.000000e+01    2.500000e+00    3.642857e+01   -4.256525e-04   -1.420754e-02   -2.626029e-04    1.421634e-02
    1.000000e+01    2.500000e+00    3.339286e+01   -3.403595e-04   -1.215970e-02   -2.429931e-04    1.216689e-02
    1.000000e+01    2.500000e+00    3.035714e+01   -2.632821e-04   -1.023793e-02   -2.221774e-04    1.024372e-02
    1.000000e+01    2.500000e+00    2.732143e+01   -1.946295e-04   -8.451175e-03   -1.994113e-04    8.455768e-03
    1.000000e+01    2.500000e+00    2.428572e+01   -1.339429e-04   -6.807569e-03   -1.772220e-04    6.811193e-03
    1.000000e+01    2.500000e+00    2.125000e+01   -8.245697e-05   -5.314218e-03   -1.523297e-04    5.317041e-03
    1.000000e+01    2.500000e+00    1.821428e+01   -4.055114e-05   -3.979594e-03   -1.276814e-04    3.981849e-03
    1.000000e+01    2.500000e+00    1.517857e+01   -7.608059e-06   -2.813706e-03   -1.020713e-04    2.815568e-03
    1.000000e+01    2.500000e+00    1.214286e+01    1.610236e-05   -1.825723e-03   -7.682152e-05    1.827409e-03
    1.000000e+01    2.500000e+00    9.107142e+00    3.206069e-05   -1.029728e-03   -5.339036e-05    1.031609e-03
    1.000000e+01    2.500000e+00    6.071429e+00    3.900798e-05   -4.421648e-04   -3.587535e-05    4.453295e-04
    1.000000e+01    2.500000e+00    3.035714e+00    3.073742e-05   -8.510036e-05   -2.756022e-05    9.458554e-05
    7.500000e+00    2.500000e+00    0.000000e+00   -3.102509e-12    2.087494e-12    1.136861e-11    1.196781e-11
    5.000000e+00    2.500000e+00    0.000000e+00    8.997650e-12    1.242130e-11   -7.016833e-12    1.686661e-11
    2.500000e+00    2.500000e+00    3.035714e+00   -5.706446e-06   -1.067667e-04   -5.227039e-05    1.190121e-04
    2.500000e+00    2.500000e+00    6.071429e+00   -6.897226e-06   -4.390272e-04   -1.165587e-04    4.542889e-04
    2.500000e+00    2.500000e+00    9.107142e+00   -9.052907e-06   -9.698072e-04   -1.768556e-04    9.858427e-04
    2.500000e+00    2.500000e+00    1.214286e+01   -1.946502e-05   -1.688608e-03   -2.336586e-04    1.704809e-03
    2.500000e+00    2.500000e+00    1.517857e+01   -3.978020e-05   -2.587058e-03   -2.882842e-04    2.603374e-03
    2.500000e+00    2.500000e+00    1.821428e+01   -7.011455e-05   -3.657471e-03   -3.405912e-04    3.673965e-03
    2.500000e+00    2.500000e+00    2.125000e+01   -1.106944e-04   -4.892841e-03   -3.896305e-04    4.909578e-03
    2.500000e+00    2.500000e+00    2.428572e+01   -1.602544e-04   -6.284318e-03   -4.378267e-04    6.301589e-03
    2.500000e+00    2.500000e+00    2.732143e+01   -2.191560e-04   -7.825929e-03   -4.841852e-04    7.843955e-03
    2.500000e+00    2.500000e+00    3.035714e+01   -2.869898e-04   -9.509792e-03   -5.267864e-04    9.528694e-03
    2.500000e+00    2.500000e+00    3.339286e+01   -3.625245e-04   -1.132803e-02   -5.676005e-04    1.134803e-02
    2.500000e+00    2.500000e+00    3.642857e+01   -4.465238e-04   -1.327341e-02   -6.064453e-04    1.329476e-02
    2.500000e+00    2.500000e+00    3.946429e+01   -5.374258e-04   -1.533816e-02   -6.432077e-04    1.536104e-02
    2.500000e+00    2.500000e+00    4.250000e+01   -6.355151e-04   -1.751536e-02   -6.760841e-04    1.753992e-02
    2.500000e+00    2.500000e+00    4.553571e+01   -7.398114e-04   -1.979700e-02   -7.079876e-04    1.982346e-02
    2.500000e+00    2.500000e+00    4.857143e+01   -8.500657e-04   -2.217587e-02   -7.372637e-04    2.220440e-02
    2.500000e+00    2.500000e+00    5.160714e+01   -9.659692e-04   -2.464480e-02   -7.640592e-04    2.467556e-02
    2.500000e+00    2.500000e+00    5.464286e+01   -1.086873e-03   -2.719551e-02   -7.885292e-04    2.722864e-02
    2.500000e+00    2.500000e+00    5.767857e+01   -1.212287e-03   -2.982107e-02   -8.108014e-04    2.985672e-02
    2.500000e+00    2.500000e+00    6.071429e+01   -1.341782e-03   -3.251442e-02   -8.302468e-04    3.255268e-02
    2.500000e+00    2.500000e+00    6.375000e+01   -1.475213e-03   -3.526729e-02   -8.482434e-04    3.530832e-02
    2.500000e+00    2.500000e+00    6.678571e+01   -1.611587e-03   -3.807219e-02   -8.629927e-04    3.811605e-02
    2.500000e+00    2.500000e+00    6.982143e+01   -1.751095e-03   -4.092234e-02   -8.764316e-04    4.096917e-02
    2.500000e+00    2.500000e+00    7.285714e+01   -1.892380e-03   -4.380996e-02   -8.868216e-04    4.385978e-02
    2.500000e+00    2.500000e+00    7.589286e+01   -2.035353e-03   -4.672774e-02   -8.949213e-04    4.678061e-02
    2.500000e+00    2.500000e+00    7.892857e+01   -2.178374e-03   -4.967018e-02   -9.002370e-04    4.972607e-02
    2.500000e+00    2.500000e+00    8.196429e+01   -2.319527e-03   -5.263430e-02   -9.007250e-04    5.269309e-02
    1.000000e+01    0.000000e+00    8.196429e+01   -3.140804e-03   -5.507723e-02   -2.913209e-03    5.524357e-02
    1.000000e+01    0.000000e+00    7.892857e+01   -2.961181e-03   -5.203260e-02   -2.906268e-03    5.219776e-02
    1.000000e+01    0.000000e+00    7.589286e+01   -2.781290e-03   -4.899802e-02   -2.889088e-03    4.916186e-02
    1.000000e+01    0.000000e+00    7.285714e+01   -2.601694e-03   -4.598359e-02   -2.864907e-03    4.614615e-02
    1.000000e+01    0.000000e+00    6.982143e+01   -2.422959e-03   -4.299702e-02   -2.831877e-03    4.315824e-02
    1.000000e+01    0.000000e+00    6.678571e+01   -2.246040e-03   -4.004650e-02   -2.791874e-03    4.020648e-02
    1.000000e+01    0.000000e+00    6.375000e+01   -2.071571e-03   -3.714000e-02   -2.744277e-03    3.729882e-02
    1.000000e+01    0.000000e+00    6.071429e+01   -1.900226e-03   -3.428520e-02   -2.689361e-03    3.444298e-02
    1.000000e+01    0.000000e+00    5.767857e+01   -1.732583e-03   -3.148983e-02   -2.626991e-03    3.164668e-02
    1.000000e+01    0.000000e+00    5.464286e+01   -1.568960e-03   -2.876151e-02   -2.557114e-03    2.891756e-02
    1.000000e+01    0.000000e+00    5.160714e+01   -1.409783e-03   -2.610815e-02   -2.479785e-03    2.626352e-02
    1.000000e+01    0.000000e+00    4.857143e+01   -1.255954e-03   -2.353710e-02   -2.395702e-03    2.369202e-02
    1.000000e+01    0.000000e+00    4.553571e+01   -1.107489e-03   -2.105567e-02   -2.303290e-03    2.121021e-02
    1.000000e+01    0.000000e+00    4.250000e+01   -9.649383e-04   -1.867139e-02   -2.204017e-03    1.882577e-02
    1.000000e+01    0.000000e+00    3.946429e+01   -8.288429e-04   -1.639180e-02   -2.097324e-03    1.654620e-02
    1.000000e+01    0.000000e+00    3.642857e+01   -6.996789e-04   -1.422454e-02   -1.983556e-03    1.437921e-02
    1.000000e+01    0.000000e+00    3.339286e+01   -5.780900e-04   -1.217725e-02   -1.862239e-03    1.233237e-02
    1.000000e+01    0.000000e+00    3.035714e+01   -4.641136e-04   -1.025688e-02   -1.733347e-03    1.041266e-02
    1.000000e+01    0.000000e+00    2.732143e+01   -3.583791e-04   -8.471108e-03   -1.597858e-03    8.627935e-03
    1.000000e+01    0.000000e+00    2.428572e+01   -2.618042e-04   -6.828271e-03   -1.453122e-03    6.986085e-03
    1.000000e+01    0.000000e+00    2.125000e+01   -1.745717e-04   -5.336565e-03   -1.302465e-03    5.495982e-03
    1.000000e+01    0.000000e+00    1.821428e+01   -9.675773e-05   -4.003004e-03   -1.143309e-03    4.164199e-03
    1.000000e+01    0.000000e+00    1.517857e+01   -3.031255e-05   -2.837789e-03   -9.762444e-04    3.001170e-03
    1.000000e+01    0.000000e+00    1.214286e+01    2.540509e-05   -1.850906e-03   -8.001429e-04    2.016613e-03
    1.000000e+01    0.000000e+00    9.107142e+00    6.779535e-05   -1.055161e-03   -6.154437e-04    1.223410e-03
    1.000000e+01    0.000000e+00    6.071429e+00    9.360410e-05   -4.672039e-04   -4.218586e-04    6.364007e-04
    1.000000e+01    0.000000e+00    3.035714e+00    8.980104e-05   -1.128109e-04   -2.173734e-04    2.608481e-04
    2.500000e+00    7.500000e+00    8.500000e+01   -7.099064e-04   -5.553972e-02    3.838543e-03    5.567674e-02
    2.500000e+00    5.000000e+00    8.500000e+01   -1.560340e-03   -5.556935e-02    1.459966e-03    5.561042e-02
    2.500000e+00    5.000000e+00    0.000000e+00   -3.169547e-11    1.753398e-11    8.781138e-12    3.727133e-11
    2.500000e+00    7.500000e+00    0.000000e+00   -1.426026e-11   -7.275094e-12    2.932965e-11    3.341422e-11
    2.500000e+00    1.000000e+01    3.035714e+00   -1.221807e-05   -2.195896e-04    4.055329e-04    4.613305e-04
    2.500000e+00    1.000000e+01    6.071429e+00    7.518182e-05   -5.639935e-04    8.124763e-04    9.918965e-04
    2.500000e+00    1.000000e+01    9.107142e+00    1.668203e-04   -1.093515e-03    1.214889e-03    1.643034e-03
    2.500000e+00    1.000000e+01    1.214286e+01    2.548974e-04   -1.808831e-03    1.607075e-03    2.433009e-03
    2.500000e+00    1.000000e+01    1.517857e+01    3.339014e-04   -2.703294e-03    1.985420e-03    3.370635e-03
    2.500000e+00    1.000000e+01    1.821428e+01    4.020033e-04   -3.769389e-03    2.348392e-03    4.459243e-03
    2.500000e+00    1.000000e+01    2.125000e+01    4.590948e-04   -4.999639e-03    2.695426e-03    5.698463e-03
    2.500000e+00    1.000000e+01    2.428572e+01    5.058461e-04   -6.386679e-03    3.026246e-03    7.085458e-03
    2.500000e+00    1.000000e+01    2.732143e+01    5.432826e-04   -7.923258e-03    3.340798e-03    8.615922e-03
    2.500000e+00    1.000000e+01    3.035714e+01    5.718734e-04   -9.601835e-03    3.639246e-03    1.028428e-02
    2.500000e+00    1.000000e+01    3.339286e+01    5.920224e-04   -1.141491e-02    3.921933e-03    1.208438e-02
    2.500000e+00    1.000000e+01    3.642857e+01    6.046419e-04   -1.335527e-02    4.187901e-03    1.400955e-02
    2.500000e+00    1.000000e+01    3.946429e+01    6.095496e-04   -1.541497e-02    4.438106e-03    1.605271e-02
    2.500000e+00    1.000000e+01    4.250000e+01    6.077855e-04   -1.758692e-02    4.672040e-03    1.820707e-02
    2.500000e+00    1.000000e+01    4.553571e+01    5.997382e-04   -1.986357e-02    4.889829e-03    2.046537e-02
    2.500000e+00    1.000000e+01    4.857143e+01    5.858675e-04   -2.223745e-02    5.091503e-03    2.282041e-02
    2.500000e+00    1.000000e+01    5.160714e+01    5.664077e-04   -2.470099e-02    5.277090e-03    2.526475e-02
    2.500000e+00    1.000000e+01    5.464286e+01    5.418701e-04   -2.724679e-02    5.446478e-03    2.779110e-02
    2.500000e+00    1.000000e+01    5.767857e+01    5.130308e-04   -2.986745e-02    5.599667e-03    3.039217e-02
    2.500000e+00    1.000000e+01    6.071429e+01    4.802541e-04   -3.255536e-02    5.736797e-03    3.306045e-02
    2.500000e+00    1.000000e+01    6.375000e+01    4.437045e-04   -3.530313e-02    5.857864e-03    3.578858e-02
    2.500000e+00    1.000000e+01    6.678571e+01    4.039465e-04   -3.810313e-02    5.962595e-03    3.856896e-02
    2.500000e+00    1.000000e+01    6.982143e+01    3.621035e-04   -4.094799e-02    6.051015e-03    4.139425e-02
    2.500000e+00    1.000000e+01    7.285714e+01    3.192048e-04   -4.383060e-02    6.123054e-03    4.425737e-02
    2.500000e+00    1.000000e+01    7.589286e+01    2.758758e-04   -4.674320e-02    6.178228e-03    4.715054e-02
    2.500000e+00    1.000000e+01    7.892857e+01    2.309861e-04   -4.967613e-02    6.215459e-03    5.006399e-02
    2.500000e+00    1.000000e+01    8.196429e+01    1.814797e-04   -5.261485e-02    6.232485e-03    5.298300e-02
    6.666667e+00    0.000000e+00    8.500000e+01   -3.327572e-03   -5.705379e-02   -3.111921e-03    5.723541e-02
    3.333333e+00    0.000000e+00    8.500000e+01   -3.347818e-03   -5.595248e-02   -3.315168e-03    5.615050e-02
    0.000000e+00    0.000000e+00    8.196429e+01   -3.174840e-03   -5.178031e-02   -3.462407e-03    5.199296e-02
    0.000000e+00    0.000000e+00    7.892857e+01   -2.993475e-03   -4.885990e-02   -3.444910e-03    4.907258e-02
    0.000000e+00    0.000000e+00    7.589286e+01   -2.813272e-03   -4.595777e-02   -3.421194e-03    4.617072e-02
    0.000000e+00    0.000000e+00    7.285714e+01   -2.636968e-03   -4.307592e-02   -3.389973e-03    4.328949e-02
    0.000000e+00    0.000000e+00    6.982143e+01   -2.464680e-03   -4.022228e-02   -3.350638e-03    4.043679e-02
    0.000000e+00    0.000000e+00    6.678571e+01   -2.294845e-03   -3.740546e-02   -3.301058e-03    3.762089e-02
    0.000000e+00    0.000000e+00    6.375000e+01   -2.127885e-03   -3.463377e-02   -3.243486e-03    3.485034e-02
    0.000000e+00    0.000000e+00    6.071429e+01   -1.964370e-03   -3.191387e-02   -3.176963e-03    3.213171e-02
    0.000000e+00    0.000000e+00    5.767857e+01   -1.804793e-03   -2.925381e-02   -3.101526e-03    2.947307e-02
    0.000000e+00    0.000000e+00    5.464286e+01   -1.649432e-03   -2.666080e-02   -3.017113e-03    2.688163e-02
    0.000000e+00    0.000000e+00    5.160714e+01   -1.497937e-03   -2.414306e-02   -2.924081e-03    2.436558e-02
    0.000000e+00    0.000000e+00    4.857143e+01   -1.352088e-03   -2.170735e-02   -2.822160e-03    2.193176e-02
    0.000000e+00    0.000000e+00    4.553571e+01   -1.211923e-03   -1.936100e-02   -2.711085e-03    1.958742e-02
    0.000000e+00    0.000000e+00    4.250000e+01   -1.077140e-03   -1.711253e-02   -2.591272e-03    1.734110e-02
    0.000000e+00    0.000000e+00    3.946429e+01   -9.493556e-04   -1.496812e-02   -2.463223e-03    1.519912e-02
    0.000000e+00    0.000000e+00    3.642857e+01   -8.278789e-04   -1.293604e-02   -2.325438e-03    1.316944e-02
    0.000000e+00    0.000000e+00    3.339286e+01   -7.142657e-04   -1.102365e-02   -2.179079e-03    1.125964e-02
    0.000000e+00    0.000000e+00    3.035714e+01   -6.083507e-04   -9.238314e-03   -2.023293e-03    9.476827e-03
    0.000000e+00    0.000000e+00    2.732143e+01   -5.106918e-04   -7.587174e-03   -1.859857e-03    7.828479e-03
    0.000000e+00    0.000000e+00    2.428572e+01   -4.220358e-04   -6.078384e-03   -1.686884e-03    6.322218e-03
    0.000000e+00    0.000000e+00    2.125000e+01   -3.420564e-04   -4.719197e-03   -1.505252e-03    4.965240e-03
    0.000000e+00    0.000000e+00    1.821428e+01   -2.724340e-04   -3.516615e-03   -1.314614e-03    3.764175e-03
    0.000000e+00    0.000000e+00    1.517857e+01   -2.130834e-04   -2.478102e-03   -1.114860e-03    2.725676e-03
    0.000000e+00    0.000000e+00    1.214286e+01   -1.642140e-04   -1.611260e-03   -9.068570e-04    1.856209e-03
    0.000000e+00    0.000000e+00    9.107142e+00   -1.275563e-04   -9.221954e-04   -6.908355e-04    1.159297e-03
    0.000000e+00    0.000000e+00    6.071429e+00   -1.021751e-04   -4.185810e-04   -4.669207e-04    6.353462e-04
    0.000000e+00    0.000000e+00    3.035714e+00   -8.107404e-05   -1.127964e-04   -2.365674e-04    2.743359e-04
    3.333333e+00    0.000000e+00    0.000000e+00   -4.226603e-12    3.169127e-12    3.741563e-12    6.473549e-12
    6.666667e+00    0.000000e+00    0.000000e+00   -4.056243e-12   -8.946731e-12    3.963903e-12    1.059290e-11
    0.000000e+00    3.333333e+00    0.000000e+00    6.201915e-12   -1.204432e-11   -1.289094e-11    1.870042e-11
    0.000000e+00    6.666667e+00    0.000000e+00   -1.152640e-11   -1.817918e-11    1.757691e-11    2.779008e-11
    0.000000e+00    1.000000e+01    3.035714e+00    9.287685e-05   -2.092066e-04    4.542758e-04    5.086846e-04
    0.000000e+00    1.000000e+01    6.071429e+00    1.760167e-04   -5.192999e-04    8.704287e-04    1.028737e-03
    0.000000e+00    1.000000e+01    9.107142e+00    2.648205e-04   -1.015478e-03    1.273465e-03    1.650163e-03
    0.000000e+00    1.000000e+01    1.214286e+01    3.492326e-04   -1.697402e-03    1.659966e-03    2.399713e-03
    0.000000e+00    1.000000e+01    1.517857e+01    4.243916e-04   -2.558869e-03    2.030074e-03    3.293800e-03
    0.000000e+00    1.000000e+01    1.821428e+01    4.885656e-04   -3.592604e-03    2.384186e-03    4.339337e-03
    0.000000e+00    1.000000e+01    2.125000e+01    5.417539e-04   -4.791008e-03    2.722570e-03    5.537115e-03
    0.000000e+00    1.000000e+01    2.428572e+01    5.845631e-04   -6.146538e-03    3.045430e-03    6.884496e-03
    0.000000e+00    1.000000e+01    2.732143e+01    6.179998e-04   -7.651867e-03    3.353141e-03    8.377144e-03
    0.000000e+00    1.000000e+01    3.035714e+01    6.426031e-04   -9.299461e-03    3.644734e-03    1.000885e-02
    0.000000e+00    1.000000e+01    3.339286e+01    6.591694e-04   -1.108124e-02    3.919749e-03    1.177255e-02
    0.000000e+00    1.000000e+01    3.642857e+01    6.676009e-04   -1.299037e-02    4.180310e-03    1.366274e-02
    0.000000e+00    1.000000e+01    3.946429e+01    6.686198e-04   -1.501908e-02    4.424086e-03    1.567139e-02
    0.000000e+00    1.000000e+01    4.250000e+01    6.628855e-04   -1.715985e-02    4.652611e-03    1.779176e-02
    0.000000e+00    1.000000e+01    4.553571e+01    6.509003e-04   -1.940528e-02    4.865411e-03    2.001651e-02
    0.000000e+00    1.000000e+01    4.857143e+01    6.330756e-04   -2.174793e-02    5.062400e-03    2.233833e-02
    0.000000e+00    1.000000e+01    5.160714e+01    6.096877e-04   -2.418023e-02    5.243548e-03    2.474975e-02
    0.000000e+00    1.000000e+01    5.464286e+01    5.812090e-04   -2.669478e-02    5.409070e-03    2.724347e-02
    0.000000e+00    1.000000e+01    5.767857e+01    5.484359e-04   -2.928410e-02    5.558907e-03    2.981209e-02
    0.000000e+00    1.000000e+01    6.071429e+01    5.117169e-04   -3.194072e-02    5.692906e-03    3.244813e-02
    0.000000e+00    1.000000e+01    6.375000e+01    4.712282e-04   -3.465709e-02    5.810951e-03    3.514404e-02
    0.000000e+00    1.000000e+01    6.678571e+01    4.275278e-04   -3.742579e-02    5.913503e-03    3.789251e-02
    0.000000e+00    1.000000e+01    6.982143e+01    3.817553e-04   -4.023932e-02    6.000649e-03    4.068608e-02
    0.000000e+00    1.000000e+01    7.285714e+01    3.348509e-04   -4.309054e-02    6.072155e-03    4.351756e-02
    0.000000e+00    1.000000e+01    7.589286e+01    2.871641e-04   -4.597244e-02    6.127651e-03    4.637991e-02
    0.000000e+00    1.000000e+01    7.892857e+01    2.373822e-04   -4.887770e-02    6.163710e-03    4.926538e-02
    0.000000e+00    1.000000e+01    8.196429e+01    1.826442e-04   -5.179492e-02    6.178630e-03    5.216246e-02
    0.000000e+00    6.666667e+00    8.500000e+01   -9.870664e-04   -5.470623e-02    2.982615e-03    5.479637e-02
    0.000000e+00    3.333333e+00    8.500000e+01   -2.134662e-03   -5.470736e-02   -2.158954e-04    5.474942e-02
    5.000000e+00    2.500000e+00    8.196429e+01   -2.334069e-03   -5.347656e-02   -7.182336e-04    5.353229e-02
    7.500000e+00    2.500000e+00    8.196429e+01   -2.344921e-03   -5.428244e-02   -5.589960e-04    5.433594e-02
    5.000000e+00    2.500000e+00    7.892857e+01   -2.183212e-03   -5.047017e-02   -7.197123e-04    5.052250e-02
    7.500000e+00    2.500000e+00    7.892857e+01   -2.186898e-03   -5.125581e-02   -5.590352e-04    5.130549e-02
    5.000000e+00    2.500000e+00    7.589286e+01   -2.036082e-03   -4.749242e-02   -7.159303e-04    4.754144e-02
    7.500000e+00    2.500000e+00    7.589286e+01   -2.036824e-03   -4.824789e-02   -5.563278e-04    4.829407e-02
    5.000000e+00    2.500000e+00    7.285714e+01   -1.891361e-03   -4.454121e-02   -7.092607e-04    4.458699e-02
    7.500000e+00    2.500000e+00    7.285714e+01   -1.890596e-03   -4.526409e-02   -5.509187e-04    4.530691e-02
    5.000000e+00    2.500000e+00    6.982143e+01   -1.748887e-03   -4.162075e-02   -7.004369e-04    4.166336e-02
    7.500000e+00    2.500000e+00    6.982143e+01   -1.747171e-03   -4.231037e-02   -5.439630e-04    4.234992e-02
    5.000000e+00    2.500000e+00    6.678571e+01   -1.608802e-03   -3.873768e-02   -6.896470e-04    3.877720e-02
    7.500000e+00    2.500000e+00    6.678571e+01   -1.606335e-03   -3.939369e-02   -5.351989e-04    3.943006e-02
    5.000000e+00    2.500000e+00    6.375000e+01   -1.471575e-03   -3.590001e-02   -6.768507e-04    3.593653e-02
    7.500000e+00    2.500000e+00    6.375000e+01   -1.468591e-03   -3.652164e-02   -5.248214e-04    3.655492e-02
    5.000000e+00    2.500000e+00    6.071429e+01   -1.337597e-03   -3.311428e-02   -6.620696e-04    3.314790e-02
    7.500000e+00    2.500000e+00    6.071429e+01   -1.334228e-03   -3.370160e-02   -5.128097e-04    3.373190e-02
    5.000000e+00    2.500000e+00    5.767857e+01   -1.207522e-03   -3.038808e-02   -6.455308e-04    3.041891e-02
    7.500000e+00    2.500000e+00    5.767857e+01   -1.203658e-03   -3.094110e-02   -4.994545e-04    3.096853e-02
    5.000000e+00    2.500000e+00    5.464286e+01   -1.081554e-03   -2.772907e-02   -6.269398e-04    2.775723e-02
    7.500000e+00    2.500000e+00    5.464286e+01   -1.077180e-03   -2.824773e-02   -4.845599e-04    2.827241e-02
    5.000000e+00    2.500000e+00    5.160714e+01   -9.600612e-04   -2.514544e-02   -6.064470e-04    2.517107e-02
    7.500000e+00    2.500000e+00    5.160714e+01   -9.553261e-04   -2.562937e-02   -4.679562e-04    2.565144e-02
    5.000000e+00    2.500000e+00    4.857143e+01   -8.437148e-04   -2.264382e-02   -5.839361e-04    2.266706e-02
    7.500000e+00    2.500000e+00    4.857143e+01   -8.385449e-04   -2.309325e-02   -4.495632e-04    2.311285e-02
    5.000000e+00    2.500000e+00    4.553571e+01   -7.329081e-04   -2.023161e-02   -5.595014e-04    2.025261e-02
    7.500000e+00    2.500000e+00    4.553571e+01   -7.272038e-04   -2.064673e-02   -4.301318e-04    2.066401e-02
    5.000000e+00    2.500000e+00    4.250000e+01   -6.279849e-04   -1.791706e-02   -5.330894e-04    1.793599e-02
    7.500000e+00    2.500000e+00    4.250000e+01   -6.218951e-04   -1.829746e-02   -4.088400e-04    1.831259e-02
    5.000000e+00    2.500000e+00    3.946429e+01   -5.295917e-04   -1.570703e-02   -5.048481e-04    1.572406e-02
    7.500000e+00    2.500000e+00    3.946429e+01   -5.230129e-04   -1.605286e-02   -3.859282e-04    1.606602e-02
    5.000000e+00    2.500000e+00    3.642857e+01   -4.379786e-04   -1.360907e-02   -4.745463e-04    1.362439e-02
    7.500000e+00    2.500000e+00    3.642857e+01   -4.309511e-04   -1.392060e-02   -3.612883e-04    1.393195e-02
    5.000000e+00    2.500000e+00    3.339286e+01   -3.538182e-04   -1.163106e-02   -4.422472e-04    1.164484e-02
    7.500000e+00    2.500000e+00    3.339286e+01   -3.463574e-04   -1.190818e-02   -3.356932e-04    1.191795e-02
    5.000000e+00    2.500000e+00    3.035714e+01   -2.772405e-04   -9.779801e-03   -4.076801e-04    9.792220e-03
    7.500000e+00    2.500000e+00    3.035714e+01   -2.694407e-04   -1.002260e-02   -3.080491e-04    1.003095e-02
    5.000000e+00    2.500000e+00    2.732143e+01   -2.092140e-04   -8.063202e-03   -3.719065e-04    8.074485e-03
    7.500000e+00    2.500000e+00    2.732143e+01   -2.008019e-04   -8.271620e-03   -2.787380e-04    8.278750e-03
    5.000000e+00    2.500000e+00    2.428572e+01   -1.499705e-04   -6.488771e-03   -3.340794e-04    6.499096e-03
    7.500000e+00    2.500000e+00    2.428572e+01   -1.407138e-04   -6.663292e-03   -2.479864e-04    6.669390e-03
    5.000000e+00    2.500000e+00    2.125000e+01   -9.869218e-05   -5.064676e-03   -2.945612e-04    5.074194e-03
    7.500000e+00    2.500000e+00    2.125000e+01   -8.977679e-05   -5.205409e-03   -2.165470e-04    5.210685e-03
    5.000000e+00    2.500000e+00    1.821428e+01   -5.777756e-05   -3.798008e-03   -2.525784e-04    3.806836e-03
    7.500000e+00    2.500000e+00    1.821428e+01   -4.791450e-05   -3.905487e-03   -1.830254e-04    3.910066e-03
    5.000000e+00    2.500000e+00    1.517857e+01   -2.617550e-05   -2.696062e-03   -2.088905e-04    2.704269e-03
    7.500000e+00    2.500000e+00    1.517857e+01   -1.538342e-05   -2.771993e-03   -1.492104e-04    2.776049e-03
    5.000000e+00    2.500000e+00    1.214286e+01   -3.940642e-06   -1.768353e-03   -1.636966e-04    1.775918e-03
    7.500000e+00    2.500000e+00    1.214286e+01    8.372228e-06   -1.814667e-03   -1.139209e-04    1.818259e-03
    5.000000e+00    2.500000e+00    9.107142e+00    9.632148e-06   -1.022570e-03   -1.174769e-04    1.029341e-03
    7.500000e+00    2.500000e+00    9.107142e+00    2.378369e-05   -1.043802e-03   -7.931262e-05    1.047081e-03
    5.000000e+00    2.500000e+00    6.071429e+00    1.458588e-05   -4.682827e-04   -6.859787e-05    4.735052e-04
    7.500000e+00    2.500000e+00    6.071429e+00    3.133649e-05   -4.723947e-04   -4.606869e-05    4.756690e-04
    5.000000e+00    2.500000e+00    3.035714e+00    1.231775e-05   -1.160111e-04   -2.260830e-05    1.188337e-04
    7.500000e+00    2.500000e+00    3.035714e+00    2.757252e-05   -1.146161e-04   -1.569294e-05    1.189259e-04
    2.500000e+00    7.500000e+00    8.196429e+01   -6.384992e-04   -5.261503e-02    3.838163e-03    5.275870e-02
    2.500000e+00    5.000000e+00    8.196429e+01   -1.467257e-03   -5.262507e-02    1.463495e-03    5.266586e-02
    2.500000e+00    7.500000e+00    7.892857e+01   -5.663526e-04   -4.967100e-02    3.824589e-03    4.982125e-02
    2.500000e+00    5.000000e+00    7.892857e+01   -1.368434e-03   -4.966956e-02    1.455068e-03    4.970971e-02
    2.500000e+00    7.500000e+00    7.589286e+01   -4.927872e-04   -4.673386e-02    3.800087e-03    4.689070e-02
    2.500000e+00    5.000000e+00    7.589286e+01   -1.262857e-03   -4.672892e-02    1.444939e-03    4.676830e-02
    2.500000e+00    7.500000e+00    7.285714e+01   -4.177286e-04   -4.381781e-02    3.766204e-03    4.398135e-02
    2.500000e+00    5.000000e+00    7.285714e+01   -1.154925e-03   -4.381097e-02    1.431935e-03    4.384958e-02
    2.500000e+00    7.500000e+00    6.982143e+01   -3.425513e-04   -4.093192e-02    3.721918e-03    4.110221e-02
    2.500000e+00    5.000000e+00    6.982143e+01   -1.046876e-03   -4.092359e-02    1.415013e-03    4.096143e-02
    2.500000e+00    7.500000e+00    6.678571e+01   -2.686201e-04   -3.808380e-02    3.667407e-03    3.826092e-02
    2.500000e+00    5.000000e+00    6.678571e+01   -9.406047e-04   -3.807330e-02    1.394147e-03    3.811042e-02
    2.500000e+00    7.500000e+00    6.375000e+01   -1.966753e-04   -3.528055e-02    3.602684e-03    3.546457e-02
    2.500000e+00    5.000000e+00    6.375000e+01   -8.361839e-04   -3.526858e-02    1.369402e-03    3.530506e-02
    2.500000e+00    7.500000e+00    6.071429e+01   -1.279052e-04   -3.252954e-02    3.527690e-03    3.272051e-02
    2.500000e+00    5.000000e+00    6.071429e+01   -7.352048e-04   -3.251590e-02    1.340359e-03    3.255181e-02
    2.500000e+00    7.500000e+00    5.767857e+01   -6.299618e-05   -2.983836e-02    3.442899e-03    3.003640e-02
    2.500000e+00    5.000000e+00    5.767857e+01   -6.380380e-04   -2.982304e-02    1.307817e-03    2.985852e-02
    2.500000e+00    7.500000e+00    5.464286e+01   -2.039800e-06   -2.721449e-02    3.348232e-03    2.741968e-02
    2.500000e+00    5.000000e+00    5.464286e+01   -5.449971e-04   -2.719735e-02    1.271693e-03    2.723251e-02