TITLE="test case governed by poisson equation"
VARIABLES="x" "y" "u" "v" "sigax"  "sigmay" "sigmaxy"
ZONE T="flow-field", N=      225,E=     384,ET=TRIANGLE, F=FEPOINT
    0.000000e+00   -0.000000e+00    2.622391e-11   -2.092946e-12    9.776157e+04    2.931719e+04    2.812892e+04
    0.000000e+00   -1.250000e-01    1.255698e-11   -8.805038e-12    9.252246e+04    1.639896e+04    3.713008e+04
    0.000000e+00   -2.500000e-01    1.352973e-11    2.329645e-12    7.513792e+04    2.289324e+04    4.455991e+04
    0.000000e+00   -3.750000e-01    3.185458e-12   -1.007665e-11    5.249711e+04    2.277832e+04    3.798231e+04
    0.000000e+00   -5.000000e-01   -6.961408e-12    1.526068e-11    4.261000e+04    2.006402e+04    2.762278e+04
    0.000000e+00   -6.250000e-01    2.607093e-11    1.454520e-11    4.609285e+04    1.798604e+04    2.013425e+04
    0.000000e+00   -7.500000e-01   -1.960539e-11   -8.695652e-12    5.647152e+04    1.753575e+04    1.755003e+04
    0.000000e+00   -8.750000e-01    4.945671e-11   -2.423046e-11    6.716302e+04    1.794983e+04    1.923421e+04
    0.000000e+00   -1.000000e+00   -9.530287e-11    2.567839e-12    7.349258e+04    1.832475e+04    2.365605e+04
    0.000000e+00   -1.125000e+00    5.253994e-12    2.389841e-11    7.397700e+04    1.830428e+04    2.896200e+04
    0.000000e+00   -1.250000e+00    9.219538e-12    7.502395e-11    6.960896e+04    1.782598e+04    3.333107e+04
    0.000000e+00   -1.375000e+00    7.696931e-12   -7.498848e-12    6.245581e+04    1.701139e+04    3.605408e+04
    0.000000e+00   -1.500000e+00    9.116657e-11    4.576413e-11    5.488807e+04    1.602998e+04    3.699581e+04
    0.000000e+00   -1.625000e+00   -2.745853e-12   -9.628239e-12    4.883440e+04    1.508705e+04    3.647642e+04
    0.000000e+00   -1.750000e+00   -3.666585e-12   -9.094678e-13    4.683484e+04    1.476621e+04    3.517300e+04
    0.000000e+00   -1.875000e+00   -1.694135e-12    3.006043e-12    5.353516e+04    1.574358e+04    3.383939e+04
    0.000000e+00   -2.000000e+00   -8.440278e-11   -9.033548e-14    7.813425e+04    1.509841e+04    3.010067e+04
    1.250000e-01   -0.000000e+00   -5.292997e-08   -4.354862e-08    1.202207e+05    1.334194e+04    3.632859e+04
    1.250000e-01   -1.250000e-01   -5.172611e-08   -6.383479e-08    1.048387e+05    1.211783e+04    5.020881e+04
    1.250000e-01   -2.500000e-01   -3.507245e-08   -6.320520e-08    6.609880e+04    3.164454e+04    4.964309e+04
    1.250000e-01   -3.750000e-01   -2.322491e-08   -5.066601e-08    4.200961e+04    3.496127e+04    3.443497e+04
    1.250000e-01   -5.000000e-01   -2.106327e-08   -3.768882e-08    3.825264e+04    2.858683e+04    2.102877e+04
    1.250000e-01   -6.250000e-01   -2.578242e-08   -3.023954e-08    4.751398e+04    2.150861e+04    1.475353e+04
    1.250000e-01   -7.500000e-01   -3.283928e-08   -2.913953e-08    6.062608e+04    1.624468e+04    1.472086e+04
    1.250000e-01   -8.750000e-01   -3.869970e-08   -3.307772e-08    7.146668e+04    1.306799e+04    1.889974e+04
    1.250000e-01   -1.000000e+00   -4.143069e-08   -3.977411e-08    7.641259e+04    1.175078e+04    2.523923e+04
    1.250000e-01   -1.125000e+00   -4.047502e-08   -4.679088e-08    7.489600e+04    1.204869e+04    3.138005e+04
    1.250000e-01   -1.250000e+00   -3.712669e-08   -5.221789e-08    6.871145e+04    1.328584e+04    3.561614e+04
    1.250000e-01   -1.375000e+00   -3.263184e-08   -5.526962e-08    6.047537e+04    1.463046e+04    3.761332e+04
    1.250000e-01   -1.500000e+00   -2.830252e-08   -5.604686e-08    5.256631e+04    1.539969e+04    3.759119e+04
    1.250000e-01   -1.625000e+00   -2.536687e-08   -5.522031e-08    4.716235e+04    1.549917e+04    3.613389e+04
    1.250000e-01   -1.750000e+00   -2.518319e-08   -5.395480e-08    4.708623e+04    1.464164e+04    3.359534e+04
    1.250000e-01   -1.875000e+00   -3.099416e-08   -5.452164e-08    5.873419e+04    1.102063e+04    2.854807e+04
    1.250000e-01   -2.000000e+00   -5.671661e-08   -6.444934e-08    6.658791e+04    5.073615e+03    1.973910e+04
    2.500000e-01   -0.000000e+00   -1.557675e-07   -1.024505e-07    1.949935e+05    1.382092e+04    5.741689e+04
    2.500000e-01   -1.250000e-01   -1.117460e-07   -1.321977e-07    1.302426e+05    2.149511e+04    7.788759e+04
    2.500000e-01   -2.500000e-01   -5.944360e-08   -1.163268e-07    4.960772e+04    5.804573e+04    5.606268e+04
    2.500000e-01   -3.750000e-01   -3.357099e-08   -8.753347e-08    2.145137e+04    4.696200e+04    2.482025e+04
    2.500000e-01   -5.000000e-01   -3.492358e-08   -6.727484e-08    2.866167e+04    3.154993e+04    9.415469e+03
    2.500000e-01   -6.250000e-01   -4.995785e-08   -5.844156e-08    4.639139e+04    1.932547e+04    5.392935e+03
    2.500000e-01   -7.500000e-01   -6.811566e-08   -5.968947e-08    6.489492e+04    1.075963e+04    8.475287e+03
    2.500000e-01   -8.750000e-01   -8.226303e-08   -6.834717e-08    7.865085e+04    5.715111e+03    1.597030e+04
    2.500000e-01   -1.000000e+00   -8.822950e-08   -8.084575e-08    8.410719e+04    4.182765e+03    2.543033e+04
    2.500000e-01   -1.125000e+00   -8.531559e-08   -9.322399e-08    8.070128e+04    5.913969e+03    3.371210e+04
    2.500000e-01   -1.250000e+00   -7.683234e-08   -1.023540e-07    7.174521e+04    9.663140e+03    3.843345e+04
    2.500000e-01   -1.375000e+00   -6.609662e-08   -1.072927e-07    6.086574e+04    1.311670e+04    3.975239e+04
    2.500000e-01   -1.500000e+00   -5.611295e-08   -1.086580e-07    5.096143e+04    1.496545e+04    3.846743e+04
    2.500000e-01   -1.625000e+00   -4.942314e-08   -1.080278e-07    4.415847e+04    1.457522e+04    3.543370e+04
    2.500000e-01   -1.750000e+00   -4.871812e-08   -1.075870e-07    4.195747e+04    1.139506e+04    3.049931e+04
    2.500000e-01   -1.875000e+00   -5.889670e-08   -1.101650e-07    4.258873e+04    4.258427e+03    2.046679e+04
    2.500000e-01   -2.000000e+00   -8.837083e-08   -1.169216e-07    3.877009e+04    2.012817e+03    1.243335e+04
    3.750000e-01   -0.000000e+00   -3.337087e-07   -1.525174e-07    3.348357e+05    4.385935e+04    1.168101e+05
    3.750000e-01   -1.250000e-01   -1.716307e-07   -1.881718e-07    1.445959e+05    8.799558e+04    1.253263e+05
    3.750000e-01   -2.500000e-01   -5.744635e-08   -1.358844e-07   -7.174517e+02    6.005449e+04    3.490856e+04
    3.750000e-01   -3.750000e-01   -3.044117e-08   -1.022277e-07    2.012768e+03    3.470046e+04    2.923231e+03
    3.750000e-01   -5.000000e-01   -4.482028e-08   -8.589138e-08    2.399493e+04    1.936630e+04   -6.416243e+03
    3.750000e-01   -6.250000e-01   -7.568472e-08   -8.284766e-08    4.952263e+04    9.350526e+03   -5.588425e+03
    3.750000e-01   -7.500000e-01   -1.083139e-07   -9.020127e-08    7.296073e+04    2.579916e+03    1.488736e+03
    3.750000e-01   -8.750000e-01   -1.325875e-07   -1.050500e-07    8.962099e+04   -1.204604e+03    1.312774e+04
    3.750000e-01   -1.000000e+00   -1.417988e-07   -1.234560e-07    9.510601e+04   -1.342459e+03    2.699970e+04
    3.750000e-01   -1.125000e+00   -1.347788e-07   -1.403569e-07    8.807488e+04    2.537811e+03    3.842952e+04
    3.750000e-01   -1.250000e+00   -1.186025e-07   -1.515264e-07    7.450601e+04    8.989686e+03    4.328760e+04
    3.750000e-01   -1.375000e+00   -9.950358e-08   -1.565090e-07    5.979554e+04    1.393071e+04    4.281804e+04
    3.750000e-01   -1.500000e+00   -8.255626e-08   -1.570188e-07    4.738474e+04    1.564774e+04    3.889915e+04
    3.750000e-01   -1.625000e+00   -7.142399e-08   -1.556846e-07    3.877467e+04    1.389858e+04    3.307243e+04
    3.750000e-01   -1.750000e+00   -6.905105e-08   -1.551012e-07    3.335468e+04    9.222116e+03    2.548424e+04
    3.750000e-01   -1.875000e+00   -7.877058e-08   -1.569265e-07    2.812276e+04    3.441227e+03    1.489951e+04
    3.750000e-01   -2.000000e+00   -1.049967e-07   -1.605885e-07    2.030329e+04    1.317579e+03    8.724365e+03
    5.000000e-01   -0.000000e+00   -6.703075e-07   -2.206315e-07   -6.878412e+04    8.283210e+04    2.359247e+05
    5.000000e-01   -1.250000e-01   -1.555118e-07   -1.104227e-07   -2.081793e+05    3.235638e+04    1.314098e+05
    5.000000e-01   -2.500000e-01   -3.561477e-08   -9.585530e-08   -7.240036e+04   -5.042638e+03    2.664274e+04
    5.000000e-01   -3.750000e-01   -2.454314e-08   -9.432630e-08   -1.893452e+04   -6.777844e+03   -2.982735e+03
    5.000000e-01   -5.000000e-01   -5.748246e-08   -9.846311e-08    1.997582e+04   -5.461724e+03   -1.139191e+04
    5.000000e-01   -6.250000e-01   -1.069517e-07   -1.082607e-07    5.403154e+04   -5.031038e+03   -1.004693e+04
    5.000000e-01   -7.500000e-01   -1.562249e-07   -1.241566e-07    8.341248e+04   -5.527272e+03   -1.820617e+03
    5.000000e-01   -8.750000e-01   -1.922057e-07   -1.454732e-07    1.042916e+05   -5.693607e+03    1.267093e+04
    5.000000e-01   -1.000000e+00   -2.042401e-07   -1.691750e-07    1.101065e+05   -3.340942e+03    3.135723e+04
    5.000000e-01   -1.125000e+00   -1.891269e-07   -1.892064e-07    9.670467e+04    3.274217e+03    4.656111e+04
    5.000000e-01   -1.250000e+00   -1.611853e-07   -1.996854e-07    7.561972e+04    1.303081e+04    5.007431e+04
    5.000000e-01   -1.375000e+00   -1.308984e-07   -2.016494e-07    5.556407e+04    1.861322e+04    4.584057e+04
    5.000000e-01   -1.500000e+00   -1.056480e-07   -1.988129e-07    4.050309e+04    1.873977e+04    3.791033e+04
    5.000000e-01   -1.625000e+00   -8.950561e-08   -1.949953e-07    3.066378e+04    1.486537e+04    2.903445e+04
    5.000000e-01   -1.750000e+00   -8.436188e-08   -1.927347e-07    2.379930e+04    9.078943e+03    1.995098e+04
    5.000000e-01   -1.875000e+00   -9.130404e-08   -1.928449e-07    1.631656e+04    3.577421e+03    1.026346e+04
    5.000000e-01   -2.000000e+00   -1.113874e-07   -1.940448e-07    7.506931e+03    1.194977e+03    5.708093e+03
    6.250000e-01   -0.000000e+00   -1.826245e-07   -1.339617e-07   -5.424502e+05   -5.983798e+04    1.752487e+05
    6.250000e-01   -1.250000e-01   -3.730551e-08   -9.719366e-08   -2.681124e+05   -4.761532e+04    8.162809e+04
    6.250000e-01   -2.500000e-01    7.086443e-09   -1.034808e-07   -1.177478e+05   -4.533718e+04    3.676604e+04
    6.250000e-01   -3.750000e-01   -1.528003e-08   -1.185211e-07   -3.992225e+04   -3.304877e+04    9.437891e+03
    6.250000e-01   -5.000000e-01   -7.241536e-08   -1.346049e-07    1.316344e+04   -2.090228e+04   -3.116606e+03
    6.250000e-01   -6.250000e-01   -1.434429e-07   -1.517234e-07    5.659038e+04   -1.185146e+04   -5.797212e+03
    6.250000e-01   -7.500000e-01   -2.121711e-07   -1.715603e-07    9.397691e+04   -6.110557e+03   -1.253710e+01
    6.250000e-01   -8.750000e-01   -2.626789e-07   -1.951928e-07    1.220587e+05   -2.342084e+03    1.518492e+04
    6.250000e-01   -1.000000e+00   -2.777967e-07   -2.207286e-07    1.300411e+05    2.590588e+03    3.917019e+04
    6.250000e-01   -1.125000e+00   -2.476419e-07   -2.404569e-07    1.054644e+05    1.173760e+04    5.918654e+04
    6.250000e-01   -1.250000e+00   -2.017020e-07   -2.450709e-07    7.233907e+04    2.485211e+04    5.790964e+04
    6.250000e-01   -1.375000e+00   -1.569496e-07   -2.393631e-07    4.593706e+04    2.798281e+04    4.676662e+04
    6.250000e-01   -1.500000e+00   -1.227776e-07   -2.304739e-07    2.978069e+04    2.347843e+04    3.398626e+04
    6.250000e-01   -1.625000e+00   -1.019969e-07   -2.229772e-07    2.080121e+04    1.639928e+04    2.293475e+04
    6.250000e-01   -1.750000e+00   -9.417371e-08   -2.185271e-07    1.464723e+04    9.274759e+03    1.366648e+04
    6.250000e-01   -1.875000e+00   -9.788958e-08   -2.169504e-07    7.485126e+03    3.717769e+03    5.751664e+03
    6.250000e-01   -2.000000e+00   -1.111763e-07   -2.164383e-07   -2.578364e+02    1.192224e+03    2.707508e+03
    7.500000e-01   -0.000000e+00    1.480912e-07   -2.420814e-07   -4.321706e+05   -6.238007e+04    9.947227e+04
    7.500000e-01   -1.250000e-01    1.110437e-07   -2.004019e-07   -2.735980e+05   -4.451278e+04    6.202972e+04
    7.500000e-01   -2.500000e-01    7.155530e-08   -1.950362e-07   -1.431000e+05   -4.387304e+04    4.483016e+04
    7.500000e-01   -3.750000e-01    4.273921e-09   -2.039087e-07   -5.817061e+04   -3.285568e+04    2.450050e+04
    7.500000e-01   -5.000000e-01   -8.371764e-08   -2.164613e-07    4.044124e+03   -1.826617e+04    1.074740e+04
    7.500000e-01   -6.250000e-01   -1.807307e-07   -2.296138e-07    5.609201e+04   -4.337517e+03    4.255308e+03
    7.500000e-01   -7.500000e-01   -2.734338e-07   -2.438713e-07    1.031381e+05    6.975659e+03    6.016912e+03
    7.500000e-01   -8.750000e-01   -3.440127e-07   -2.609746e-07    1.427915e+05    1.563064e+04    1.996564e+04
    7.500000e-01   -1.000000e+00   -3.651442e-07   -2.804927e-07    1.574414e+05    2.465563e+04    5.053752e+04
    7.500000e-01   -1.125000e+00   -3.072362e-07   -2.924067e-07    1.112229e+05    3.610805e+04    7.680273e+04
    7.500000e-01   -1.250000e+00   -2.342259e-07   -2.813787e-07    5.890503e+04    4.825499e+04    6.218948e+04
    7.500000e-01   -1.375000e+00   -1.731113e-07   -2.626889e-07    2.899738e+04    3.828494e+04    4.072580e+04
    7.500000e-01   -1.500000e+00   -1.319236e-07   -2.473347e-07    1.679109e+04    2.596016e+04    2.528370e+04
    7.500000e-01   -1.625000e+00   -1.083864e-07   -2.372070e-07    1.110264e+04    1.559635e+04    1.457155e+04
    7.500000e-01   -1.750000e+00   -9.906151e-08   -2.317198e-07    7.201863e+03    7.867803e+03    6.844055e+03
    7.500000e-01   -1.875000e+00   -1.003403e-07   -2.294396e-07    2.067559e+03    3.004213e+03    1.464628e+03
    7.500000e-01   -2.000000e+00   -1.078375e-07   -2.281966e-07   -3.089909e+03    8.841940e+02   -1.252533e+02
    8.750000e-01   -0.000000e+00    4.073415e-07   -4.213650e-07   -3.643288e+05   -3.403129e+04    5.652017e+04
    8.750000e-01   -1.250000e-01    2.655567e-07   -3.750017e-07   -2.620270e+05   -2.759856e+04    4.694236e+04
    8.750000e-01   -2.500000e-01    1.520852e-07   -3.563160e-07   -1.536943e+05   -2.841186e+04    4.749881e+04
    8.750000e-01   -3.750000e-01    3.638099e-08   -3.523980e-07   -7.101432e+04   -1.910852e+04    3.733367e+04
    8.750000e-01   -5.000000e-01   -8.683208e-08   -3.534386e-07   -5.051053e+03   -3.433454e+03    2.683777e+04
    8.750000e-01   -6.250000e-01   -2.137423e-07   -3.543713e-07    5.323495e+04    1.517723e+04    1.951439e+04
    8.750000e-01   -7.500000e-01   -3.354366e-07   -3.536093e-07    1.103329e+05    3.463626e+04    1.805151e+04
    8.750000e-01   -8.750000e-01   -4.346150e-07   -3.519979e-07    1.672924e+05    5.475082e+04    2.956832e+04
    8.750000e-01   -1.000000e+00   -4.706353e-07   -3.500368e-07    1.987485e+05    8.091165e+04    6.961365e+04
    8.750000e-01   -1.125000e+00   -3.579032e-07   -3.338606e-07    9.948253e+04    1.081137e+05    9.387428e+04
    8.750000e-01   -1.250000e+00   -2.476243e-07   -2.897775e-07    2.448957e+04    6.754676e+04    4.501587e+04
    8.750000e-01   -1.375000e+00   -1.769487e-07   -2.610914e-07    1.086206e+04    3.783655e+04    2.286478e+04
    8.750000e-01   -1.500000e+00   -1.337410e-07   -2.448274e-07    6.386623e+03    1.953270e+04    1.175692e+04
    8.750000e-01   -1.625000e+00   -1.101152e-07   -2.367016e-07    4.382702e+03    8.573614e+03    5.187831e+03
    8.750000e-01   -1.750000e+00   -1.007295e-07   -2.334302e-07    2.800238e+03    2.640375e+03    8.842225e+02
    8.750000e-01   -1.875000e+00   -1.008076e-07   -2.324745e-07    2.471524e+02    4.563799e+02   -1.497003e+03
    8.750000e-01   -2.000000e+00   -1.047176e-07   -2.317263e-07   -1.783925e+03   -8.192873e+01   -1.781805e+03
    1.000000e+00   -0.000000e+00    6.259343e-07   -6.505138e-07   -3.176137e+05   -1.700193e+04    3.621834e+04
    1.000000e+00   -1.250000e-01    4.146028e-07   -6.038006e-07   -2.429045e+05   -1.414149e+04    3.866145e+04
    1.000000e+00   -2.500000e-01    2.402122e-07   -5.769339e-07   -1.530303e+05   -1.328498e+04    5.015551e+04
    1.000000e+00   -3.750000e-01    7.834219e-08   -5.622940e-07   -7.696398e+04   -3.910551e+03    4.988061e+04
    1.000000e+00   -5.000000e-01   -8.101207e-08   -5.520454e-07   -1.143160e+04    1.278252e+04    4.582814e+04
    1.000000e+00   -6.250000e-01   -2.395710e-07   -5.402795e-07    5.028009e+04    3.560272e+04    4.250781e+04
    1.000000e+00   -7.500000e-01   -3.936862e-07   -5.224359e-07    1.170985e+05    6.520755e+04    4.388056e+04
    1.000000e+00   -8.750000e-01   -5.315480e-07   -4.937661e-07    2.019178e+05    1.078947e+05    6.237231e+04
    1.000000e+00   -1.000000e+00   -6.029067e-07   -4.421013e-07    2.681684e+05    1.547121e+05    1.027587e+05
    1.000000e+00   -1.125000e+00   -3.541306e-07   -2.941159e-07    3.656717e+04    1.469605e+05    7.442056e+04
    1.000000e+00   -1.250000e+00   -2.417391e-07   -2.433446e-07    9.145690e+03    5.745324e+04    2.620869e+04
    1.000000e+00   -1.375000e+00   -1.742721e-07   -2.251063e-07    3.567737e+03    2.263698e+04    1.204165e+04
    1.000000e+00   -1.500000e+00   -1.333382e-07   -2.210967e-07    1.845914e+03    6.029490e+03    5.643477e+03
    1.000000e+00   -1.625000e+00   -1.109871e-07   -2.234540e-07    1.215349e+03   -1.534120e+03    1.847851e+03
    1.000000e+00   -1.750000e+00   -1.019779e-07   -2.277587e-07    7.210242e+02   -3.499178e+03   -7.187345e+02
    1.000000e+00   -1.875000e+00   -1.014730e-07   -2.310444e-07   -1.992672e+02   -1.865552e+03   -1.899143e+03
    1.000000e+00   -2.000000e+00   -1.040305e-07   -2.317316e-07   -1.649118e+03   -1.649118e+03   -1.649118e+03
    1.125000e+00   -0.000000e+00    8.163547e-07   -9.251706e-07   -2.793504e+05   -8.473151e+03    2.813755e+04
    1.125000e+00   -1.250000e-01    5.524653e-07   -8.812665e-07   -2.192347e+05   -6.150195e+03    3.608806e+04
    1.125000e+00   -2.500000e-01    3.283247e-07   -8.516828e-07   -1.439431e+05   -3.465610e+03    5.450433e+04
    1.125000e+00   -3.750000e-01    1.247555e-07   -8.319242e-07   -7.576479e+04    5.224523e+03    6.212750e+04
    1.125000e+00   -5.000000e-01   -6.986299e-08   -8.171205e-07   -1.285533e+04    1.921479e+04    6.500678e+04
    1.125000e+00   -6.250000e-01   -2.609050e-07   -8.038204e-07    5.007691e+04    3.708192e+04    6.813251e+04
    1.125000e+00   -7.500000e-01   -4.504750e-07   -7.910371e-07    1.243598e+05    5.620999e+04    7.563552e+04
    1.125000e+00   -8.750000e-01   -6.428517e-07   -7.846698e-07    2.543741e+05    6.343572e+04    8.932656e+04
    1.125000e+00   -1.000000e+00   -8.908173e-07   -8.311446e-07    3.541959e+05    2.985941e+04    6.548612e+04
    1.250000e+00   -0.000000e+00    9.823726e-07   -1.242797e-06   -2.425524e+05   -4.401768e+03    2.578186e+04
    1.250000e+00   -1.250000e-01    6.757333e-07   -1.203710e-06   -1.919276e+05   -2.203625e+03    3.678371e+04
    1.250000e+00   -2.500000e-01    4.105562e-07   -1.175186e-06   -1.288339e+05    1.379059e+03    5.932586e+04
    1.250000e+00   -3.750000e-01    1.697450e-07   -1.154724e-06   -6.850838e+04    8.338659e+03    7.137863e+04
    1.250000e+00   -5.000000e-01   -5.959028e-08   -1.140300e-06   -8.651732e+03    1.740776e+04    7.739225e+04
    1.250000e+00   -6.250000e-01   -2.858707e-07   -1.131529e-06    5.486264e+04    2.610019e+04    8.094168e+04
    1.250000e+00   -7.500000e-01   -5.175100e-07   -1.130992e-06    1.296945e+05    2.883541e+04    8.080852e+04
    1.250000e+00   -8.750000e-01   -7.743313e-07   -1.148430e-06    2.142365e+05    1.086541e+04    6.095191e+04
    1.250000e+00   -1.000000e+00   -1.087924e-06   -1.191908e-06    2.608584e+05    9.302754e+03    3.329333e+04
    1.375000e+00   -0.000000e+00    1.123858e-06   -1.599597e-06   -2.040856e+05   -2.418928e+03    2.582628e+04
    1.375000e+00   -1.250000e-01    7.821542e-07   -1.566635e-06   -1.617662e+05   -6.956918e+02    3.896950e+04
    1.375000e+00   -2.500000e-01    4.834188e-07   -1.541402e-06   -1.105232e+05    2.916420e+03    6.369018e+04
    1.375000e+00   -3.750000e-01    2.099914e-07   -1.522797e-06   -5.888207e+04    7.741257e+03    7.710569e+04
    1.375000e+00   -5.000000e-01   -5.272820e-08   -1.511048e-06   -3.982970e+03    1.201603e+04    8.279366e+04
    1.375000e+00   -6.250000e-01   -3.148053e-07   -1.508013e-06    5.515526e+04    1.330914e+04    8.347319e+04
    1.375000e+00   -7.500000e-01   -5.864176e-07   -1.516553e-06    1.157026e+05    8.991483e+03    7.550734e+04
    1.375000e+00   -8.750000e-01   -8.865891e-07   -1.538981e-06    1.740025e+05    1.154803e+03    4.964224e+04
    1.375000e+00   -1.000000e+00   -1.239394e-06   -1.575159e-06    2.025653e+05    4.093802e+03    2.622968e+04
    1.500000e+00   -0.000000e+00    1.239094e-06   -1.989826e-06   -1.628568e+05   -1.362958e+03    2.663687e+04
    1.500000e+00   -1.250000e-01    8.701794e-07   -1.963902e-06   -1.295393e+05   -6.103095e+02    4.153173e+04
    1.500000e+00   -2.500000e-01    5.453458e-07   -1.943206e-06   -9.123794e+04    2.346568e+03    6.710533e+04
    1.500000e+00   -3.750000e-01    2.446441e-07   -1.927604e-06   -4.979790e+04    5.241743e+03    7.976989e+04
    1.500000e+00   -5.000000e-01   -4.889976e-08   -1.918762e-06   -1.538315e+03    6.442360e+03    8.305402e+04
    1.500000e+00   -6.250000e-01   -3.446928e-07   -1.919851e-06    5.101676e+04    4.433753e+03    8.124525e+04
    1.500000e+00   -7.500000e-01   -6.482323e-07   -1.932331e-06    9.788316e+04    3.310395e+02    7.203531e+04
    1.500000e+00   -8.750000e-01   -9.777886e-07   -1.953947e-06    1.372888e+05   -2.066657e+03    4.623875e+04
    1.500000e+00   -1.000000e+00   -1.356255e-06   -1.982799e-06    1.527603e+05    1.974392e+03    2.559782e+04
    1.625000e+00   -0.000000e+00    1.325918e-06   -2.405534e-06   -1.190468e+05   -8.792575e+02    2.718181e+04
    1.625000e+00   -1.250000e-01    9.387719e-07   -2.387394e-06   -9.613829e+04   -1.814690e+03    4.347305e+04
    1.625000e+00   -2.500000e-01    5.959781e-07   -2.372459e-06   -7.236604e+04   -8.131447e+02    6.932687e+04
    1.625000e+00   -3.750000e-01    2.744939e-07   -2.361021e-06   -4.280943e+04    3.117339e+02    8.064045e+04
    1.625000e+00   -5.000000e-01   -4.651110e-08   -2.354906e-06   -1.349741e+03    1.150416e+03    8.089502e+04
    1.625000e+00   -6.250000e-01   -3.738185e-07   -2.358054e-06    4.709204e+04    7.224556e+02    7.830772e+04
    1.625000e+00   -7.500000e-01   -7.008691e-07   -2.371125e-06    8.078051e+04   -8.316061e+02    7.159656e+04
    1.625000e+00   -8.750000e-01   -1.048106e-06   -2.388488e-06    1.016649e+05   -6.569918e+02    4.596285e+04
    1.625000e+00   -1.000000e+00   -1.440805e-06   -2.409096e-06    1.040124e+05    2.267948e+03    2.638562e+04
    1.750000e+00   -0.000000e+00    1.382614e-06   -2.835743e-06   -7.458731e+04   -1.378429e+03    2.579603e+04
    1.750000e+00   -1.250000e-01    9.872186e-07   -2.826065e-06   -6.287293e+04   -5.407858e+03    4.255210e+04
    1.750000e+00   -2.500000e-01    6.349871e-07   -2.819782e-06   -5.406448e+04   -1.030316e+04    6.925115e+04
    1.750000e+00   -3.750000e-01    3.005577e-07   -2.816749e-06   -3.762827e+04   -1.307736e+04    8.158067e+04
    1.750000e+00   -5.000000e-01   -4.434229e-08   -2.816040e-06   -1.030964e+03   -8.986019e+03    8.153658e+04
    1.750000e+00   -6.250000e-01   -4.031647e-07   -2.818998e-06    4.772001e+04    7.216079e+03    7.981071e+04
    1.750000e+00   -7.500000e-01   -7.430967e-07   -2.826033e-06    6.276504e+04    1.391437e+04    7.398452e+04
    1.750000e+00   -8.750000e-01   -1.096296e-06   -2.832512e-06    6.342064e+04    7.087772e+03    4.359517e+04
    1.750000e+00   -1.000000e+00   -1.492587e-06   -2.842967e-06    5.581001e+04    5.067440e+03    2.380888e+04
    1.875000e+00   -0.000000e+00    1.409925e-06   -3.264568e-06   -3.534325e+04   -3.848002e+03    1.876544e+04
    1.875000e+00   -1.250000e-01    1.014988e-06   -3.263376e-06   -3.251103e+04   -1.277893e+04    3.301697e+04
    1.875000e+00   -2.500000e-01    6.600855e-07   -3.272317e-06   -3.558740e+04   -3.348375e+04    6.077384e+04
    1.875000e+00   -3.750000e-01    3.210479e-07   -3.292305e-06   -3.091857e+04   -5.667491e+04    8.169830e+04
    1.875000e+00   -5.000000e-01   -4.505599e-08   -3.315647e-06    1.561228e+04   -5.855288e+04    1.092966e+05
    1.875000e+00   -6.250000e-01   -4.336963e-07   -3.307945e-06    5.052502e+04    8.528794e+04    1.011664e+05
    1.875000e+00   -7.500000e-01   -7.661347e-07   -3.281108e-06    2.458465e+04    4.982932e+04    6.481370e+04
    1.875000e+00   -8.750000e-01   -1.120151e-06   -3.269269e-06    2.366034e+04    1.795302e+04    3.099149e+04
    1.875000e+00   -1.000000e+00   -1.513896e-06   -3.269207e-06    1.703763e+04    6.998779e+03    1.312512e+04
    2.000000e+00   -0.000000e+00    1.415896e-06   -3.670827e-06   -1.291938e+04   -4.210820e+03    8.839643e+03
    2.000000e+00   -1.250000e-01    1.022893e-06   -3.672418e-06   -2.047637e+04   -2.695421e+04    3.024358e+04
    2.000000e+00   -2.500000e-01    6.664007e-07   -3.699048e-06   -3.272306e+04   -8.258963e+04    6.552322e+04
    2.000000e+00   -3.750000e-01    3.226072e-07   -3.782381e-06   -2.988051e+04   -1.760011e+05    1.113292e+05
    2.000000e+00   -5.000000e-01   -8.910279e-08   -3.973986e-06    4.302077e+04    1.543725e+04    1.440694e+05
    2.000000e+00   -6.250000e-01   -4.141556e-07   -3.785563e-06    2.568156e+04    1.734686e+05    8.129948e+04
    2.000000e+00   -7.500000e-01   -7.581466e-07   -3.704816e-06    1.325741e+04    7.006153e+04    4.208924e+04
    2.000000e+00   -8.750000e-01   -1.122268e-06   -3.679395e-06    9.908663e+03    1.906189e+04    1.603501e+04
    2.000000e+00   -1.000000e+00   -1.517144e-06   -3.676147e-06    7.794775e+03    7.794775e+03    7.794775e+03
       1      18       2
      18      19       2
       2      19       3
      19      20       3
       3      20       4
      20      21       4
       4      21       5
      21      22       5
       5      22       6
      22      23       6
       6      23       7
      23      24       7
       7      24       8
      24      25       8
       8      25       9
      25      26       9
       9      26      10
      26      27      10
      10      27      11
      27      28      11
      11      28      12
      28      29      12
      12      29      13
      29      30      13
      13      30      14
      30      31      14
      14      31      15
      31      32      15
      15      32      16
      32      33      16
      16      33      17
      33      34      17
      18      35      19
      35      36      19
      19      36      20
      36      37      20
      20      37      21
      37      38      21
      21      38      22
      38      39      22
      22      39      23
      39      40      23
      23      40      24
      40      41      24
      24      41      25
      41      42      25
      25      42      26
      42      43      26
      26      43      27
      43      44      27
      27      44      28
      44      45      28
      28      45      29
      45      46      29
      29      46      30
      46      47      30
      30      47      31
      47      48      31
      31      48      32
      48      49      32
      32      49      33
      49      50      33
      33      50      34
      50      51      34
      35      52      36
      52      53      36
      36      53      37
      53      54      37
      37      54      38
      54      55      38
      38      55      39
      55      56      39
      39      56      40
      56      57      40
      40      57      41
      57      58      41
      41      58      42
      58      59      42
      42      59      43
      59      60      43
      43      60      44
      60      61      44
      44      61      45
      61      62      45
      45      62      46
      62      63      46
      46      63      47
      63      64      47
      47      64      48
      64      65      48
      48      65      49
      65      66      49
      49      66      50
      66      67      50
      50      67      51
      67      68      51
      52      69      53
      69      70      53
      53      70      54
      70      71      54
      54      71      55
      71      72      55
      55      72      56
      72      73      56
      56      73      57
      73      74      57
      57      74      58
      74      75      58
      58      75      59
      75      76      59
      59      76      60
      76      77      60
      60      77      61
      77      78      61
      61      78      62
      78      79      62
      62      79      63
      79      80      63
      63      80      64
      80      81      64
      64      81      65
      81      82      65
      65      82      66
      82      83      66
      66      83      67
      83      84      67
      67      84      68
      84      85      68
      69      86      70
      86      87      70
      70      87      71
      87      88      71
      71      88      72
      88      89      72
      72      89      73
      89      90      73
      73      90      74
      90      91      74
      74      91      75
      91      92      75
      75      92      76
      92      93      76
      76      93      77
      93      94      77
      77      94      78
      94      95      78
      78      95      79
      95      96      79
      79      96      80
      96      97      80
      80      97      81
      97      98      81
      81      98      82
      98      99      82
      82      99      83
      99     100      83
      83     100      84
     100     101      84
      84     101      85
     101     102      85
      86     103      87
     103     104      87
      87     104      88
     104     105      88
      88     105      89
     105     106      89
      89     106      90
     106     107      90
      90     107      91
     107     108      91
      91     108      92
     108     109      92
      92     109      93
     109     110      93
      93     110      94
     110     111      94