TITLE="test case governed by poisson equation"
VARIABLES="x" "y" "u" "v" "sigax"  "sigmay" "sigmaxy"
ZONE T="flow-field", N=     1223,E=    1144,ET=QUADRILATERAL, F=FEPOINT
    9.607843e+02    0.000000e+00   -1.852227e-05   -7.513369e-05   -1.025637e+03    2.005795e+02   -3.331332e+02
    9.411765e+02    0.000000e+00   -1.837003e-05   -7.207357e-05   -2.278615e+03    8.540879e+00   -4.006247e+02
    9.019608e+02    0.000000e+00   -1.779965e-05   -6.621902e-05   -2.981584e+03    5.190512e+01   -3.877537e+02
    8.627451e+02    0.000000e+00   -1.708461e-05   -6.089728e-05   -3.425211e+03   -1.263164e+02   -2.312338e+02
    8.235294e+02    0.000000e+00   -1.637957e-05   -5.606556e-05   -3.283019e+03   -8.551540e+01   -1.261418e+02
    8.039216e+02    0.000000e+00   -1.605081e-05   -5.379712e-05   -3.134509e+03   -7.286349e+01   -9.103137e+01
    7.647059e+02    0.000000e+00   -1.545372e-05   -4.948359e-05   -2.796228e+03   -4.317876e+01   -5.259095e+01
    7.254902e+02    0.000000e+00   -1.492337e-05   -4.538772e-05   -2.548068e+03   -1.908216e+01   -4.910834e+01
    7.058823e+02    0.000000e+00   -1.467444e-05   -4.340093e-05   -2.796567e+03   -1.062165e+02   -4.763573e+01
    6.666667e+02    0.000000e+00   -1.419072e-05   -3.952701e-05   -2.722903e+03   -8.339411e+01   -5.882847e+01
    6.274510e+02    0.000000e+00   -1.370428e-05   -3.577339e-05   -2.175856e+03    1.010279e+02   -1.113245e+02
    6.078431e+02    0.000000e+00   -1.345342e-05   -3.394034e-05   -2.907963e+03   -1.019431e+02   -1.035009e+02
    5.686274e+02    0.000000e+00   -1.292764e-05   -3.037046e-05   -2.721811e+03   -1.079084e+01   -1.206168e+02
    5.294117e+02    0.000000e+00   -1.236386e-05   -2.693559e-05   -2.930638e+03    3.981069e-01   -1.340508e+02
    4.901961e+02    0.000000e+00   -1.175613e-05   -2.364530e-05   -3.180820e+03    1.310822e+00   -1.392036e+02
    4.705882e+02    0.000000e+00   -1.143436e-05   -2.206034e-05   -3.295715e+03    6.514597e+00   -1.452398e+02
    4.313726e+02    0.000000e+00   -1.075373e-05   -1.901896e-05   -3.522958e+03    1.729479e+01   -1.566208e+02
    3.921569e+02    0.000000e+00   -1.002496e-05   -1.615985e-05   -3.762291e+03    2.767855e+01   -1.634895e+02
    3.725490e+02    0.000000e+00   -9.642197e-06   -1.480248e-05   -4.388992e+03   -1.206636e+02   -1.478488e+02
    3.333333e+02    0.000000e+00   -8.839601e-06   -1.224225e-05   -4.657914e+03   -1.196662e+02   -1.449628e+02
    2.941176e+02    0.000000e+00   -7.988400e-06   -9.898699e-06   -3.846909e+03    2.003484e+02   -2.103682e+02
    2.745098e+02    0.000000e+00   -7.544162e-06   -8.810611e-06   -5.126183e+03   -1.757516e+02   -1.669035e+02
    2.352941e+02    0.000000e+00   -6.615152e-06   -6.816945e-06   -4.678818e+03   -6.957878e+00   -1.628763e+02
    1.960784e+02    0.000000e+00   -5.645732e-06   -5.070659e-06   -5.017683e+03   -5.870099e+01   -1.762114e+02
    1.568627e+02    0.000000e+00   -4.628061e-06   -3.584259e-06   -5.295705e+03   -6.464714e+01   -1.830287e+02
    1.372549e+02    0.000000e+00   -4.101845e-06   -2.941869e-06   -5.414315e+03   -5.757629e+01   -1.835468e+02
    9.803922e+01    0.000000e+00   -3.018706e-06   -1.861562e-06   -5.641089e+03   -3.950986e+01   -1.770921e+02
    5.882353e+01    0.000000e+00   -1.899118e-06   -1.043941e-06   -5.922276e+03   -3.609965e+01   -1.615397e+02
    3.921569e+01    0.000000e+00   -1.325498e-06   -7.151326e-07   -6.124804e+03    4.778074e+01   -2.323788e+02
    1.000000e+03    0.000000e+00   -1.859302e-05   -8.120641e-05   -3.365888e+01    1.527512e+02    1.044088e+01
    0.000000e+00    0.000000e+00   -9.409260e-10    5.045513e-10   -5.482405e+03   -1.662934e+03   -8.915207e+02
    1.000000e+03    7.333334e+01   -7.653067e-06   -8.184292e-05   -9.001862e+01   -5.196538e+03   -1.336798e+03
    1.000000e+03    4.666667e+01   -1.162785e-05   -8.132131e-05   -4.819714e+01   -1.973308e+03   -3.394970e+02
    1.000000e+03    2.666667e+01   -1.456437e-05   -8.121069e-05   -3.202677e+01   -5.276830e+02   -1.664868e+02
    1.000000e+03    1.000000e+02   -2.209106e-06   -8.386034e-05    4.525489e+03   -2.397059e+04   -7.659419e+03
    8.043705e+02    2.584177e+02    1.057964e-05   -5.330889e-05    4.778209e+01    3.847418e+02   -2.221781e+02
    8.217987e+02    2.092019e+02    6.185965e-06   -5.523976e-05    5.890059e+02    1.367080e+03   -1.022815e+03
    8.445708e+02    1.741359e+02    3.158456e-06   -5.802161e-05    1.952911e+03    2.701054e+03   -2.031550e+03
    8.741359e+02    1.445708e+02    6.109645e-07   -6.191945e-05    3.027442e+03    1.588158e+03   -2.085632e+03
    9.092019e+02    1.217987e+02   -1.366344e-06   -6.692463e-05    3.861465e+03    8.784259e+02   -1.701646e+03
    9.584177e+02    1.043705e+02   -2.795369e-06   -7.463968e-05    3.616903e+03    8.723890e+01   -4.217475e+02
    8.000000e+02    3.000000e+02    1.451698e-05   -5.288443e-05   -3.247530e+01   -4.010193e+01   -1.797508e+01
    4.000000e+01    3.000000e+02    1.347853e-06   -7.261235e-07    6.151500e+03    1.479854e+02   -1.475994e+02
    6.000000e+01    3.000000e+02    1.932295e-06   -1.063388e-06    5.885249e+03    1.559566e+01    1.396070e+02
    1.000000e+02    3.000000e+02    3.072589e-06   -1.907765e-06    5.552304e+03    1.540239e+01   -2.832990e+02
    1.400000e+02    3.000000e+02    4.175463e-06   -3.025371e-06    5.314923e+03   -1.634246e+01   -5.064174e+01
    1.600000e+02    3.000000e+02    4.711669e-06   -3.692127e-06    5.206622e+03   -5.397800e+01    1.794808e+02
    2.000000e+02    3.000000e+02    5.745695e-06   -5.232832e-06    4.959013e+03    6.122920e+01   -2.779991e+02
    2.400000e+02    3.000000e+02    6.734216e-06   -7.041249e-06    4.630978e+03    1.716085e+01   -6.274665e+01
    2.600000e+02    3.000000e+02    7.209766e-06   -8.045399e-06    4.582966e+03   -7.692396e+01    1.472455e+02
    3.000000e+02    3.000000e+02    8.118904e-06   -1.023780e-05    4.348882e+03    2.891662e+01   -2.555667e+02
    3.400000e+02    3.000000e+02    8.983576e-06   -1.266310e-05    4.105770e+03   -2.657118e+00   -4.729688e+01
    3.600000e+02    3.000000e+02    9.395348e-06   -1.396181e-05    4.015278e+03   -5.992026e+01    1.112630e+02
    4.000000e+02    3.000000e+02    1.017769e-05   -1.672054e-05    3.734589e+03    4.029592e+01   -2.249424e+02
    4.400000e+02    3.000000e+02    1.091718e-05   -1.967949e-05    3.484976e+03   -5.866554e+00   -4.805295e+01
    4.600000e+02    3.000000e+02    1.126668e-05   -2.123318e-05    3.382929e+03   -6.031187e+01    8.468442e+01
    5.000000e+02    3.000000e+02    1.192344e-05   -2.447841e-05    3.105548e+03    1.064989e+01   -2.095009e+02
    5.400000e+02    3.000000e+02    1.253480e-05   -2.789464e-05    2.831249e+03   -9.523654e+00   -5.141473e+01
    5.600000e+02    3.000000e+02    1.281772e-05   -2.966612e-05    2.723629e+03   -3.453431e+01    4.546449e+01
    6.000000e+02    3.000000e+02    1.333227e-05   -3.332223e-05    2.390662e+03   -8.579354e+00   -1.927955e+02
    6.400000e+02    3.000000e+02    1.378564e-05   -3.711521e-05    1.978317e+03   -1.704828e+01   -9.410433e+01
    6.600000e+02    3.000000e+02    1.397943e-05   -3.905890e-05    1.784003e+03    2.125813e+01   -5.010203e+01
    7.000000e+02    3.000000e+02    1.428385e-05   -4.301487e-05    1.265015e+03   -8.639204e+01   -1.850346e+02
    7.400000e+02    3.000000e+02    1.447071e-05   -4.701236e-05    6.323088e+02    1.048013e+02   -1.714590e+02
    7.600000e+02    3.000000e+02    1.450903e-05   -4.899857e-05    2.731205e+02   -1.359457e+02   -2.426550e+01
    0.000000e+00    3.000000e+02   -1.634134e-09    1.072150e-09    4.804838e+03   -5.964290e+02    1.276327e+02
    0.000000e+00    3.000000e+01    1.434896e-10   -2.991242e-10   -5.932091e+03   -1.245084e+03   -8.253017e+02
    0.000000e+00    6.000000e+01   -6.875211e-11    3.456797e-09   -4.250334e+03   -1.080267e+03   -4.247620e+02
    0.000000e+00    9.000000e+01    8.323212e-10   -2.368816e-10   -2.309429e+03   -5.845537e+02   -1.688526e+02
    0.000000e+00    1.200000e+02   -5.181049e-10   -1.706584e-09   -1.160979e+03   -2.786295e+02   -5.573052e+01
    0.000000e+00    1.500000e+02   -1.817438e-09   -1.256592e-09   -7.404683e+01   -2.321021e+00   -3.709016e+01
    0.000000e+00    1.800000e+02   -3.960784e-09   -1.193200e-10    1.101147e+03    2.985585e+02   -4.597497e+01
    0.000000e+00    2.100000e+02    2.081934e-09   -5.274356e-10    2.355272e+03    6.508773e+02   -1.551196e+02
    0.000000e+00    2.400000e+02   -8.134410e-10    8.883778e-10    3.659238e+03    9.309267e+02   -3.285450e+02
    0.000000e+00    2.700000e+02    1.020311e-10   -1.057119e-09    4.366917e+03    9.682503e+02   -4.028547e+02
    9.634396e+02    2.944268e+01   -1.411831e-05   -7.551703e-05   -1.060148e+03   -2.986378e+02   -1.004833e+03
    9.353113e+02    2.778336e+01   -1.419127e-05   -7.108257e-05   -1.571945e+03    1.923005e+02   -8.196523e+02
    9.038953e+02    3.097111e+01   -1.348173e-05   -6.637012e-05   -1.886494e+03    2.618726e+02   -5.000385e+02
    8.694128e+02    3.373256e+01   -1.279714e-05   -6.162593e-05   -2.525153e+03    9.165516e+00   -1.270389e+02
    8.384903e+02    3.327719e+01   -1.256041e-05   -5.771745e-05   -1.447033e+03    1.997539e+02    1.618283e+01
    8.018780e+02    3.269546e+01   -1.227498e-05   -5.343922e-05   -2.050942e+03   -1.354184e+01    1.000321e+02
    7.645316e+02    3.357170e+01   -1.182391e-05   -4.934851e-05   -1.943959e+03   -3.853059e+01    1.584223e+02
    7.075202e+02    3.462506e+01   -1.119857e-05   -4.345628e-05   -1.922796e+03   -4.744867e+01   -1.439883e+01
    6.498964e+02    3.526523e+01   -1.061381e-05   -3.779477e-05   -1.749646e+03    9.085195e+00   -3.662788e+01
    6.124765e+02    3.882862e+01   -9.930657e-06   -3.424312e-05   -1.874410e+03    5.351063e+00   -1.374779e+02
    5.761703e+02    3.770177e+01   -9.673515e-06   -3.091585e-05   -2.403489e+03   -8.586906e+01   -1.947717e+02
    5.454407e+02    3.982338e+01   -9.168008e-06   -2.817377e-05   -2.221408e+03   -3.115670e+01   -9.261225e+01
    5.050944e+02    3.745405e+01   -8.913210e-06   -2.472285e-05   -2.223254e+03    5.718869e+01   -2.167251e+02
    4.685919e+02    3.560340e+01   -8.610151e-06   -2.174387e-05   -2.718501e+03   -8.599194e+00   -2.348481e+02
    4.311192e+02    3.909794e+01   -7.857683e-06   -1.881589e-05   -3.081325e+03   -7.334514e+01   -2.574339e+02
    3.720677e+02    3.778531e+01   -7.116367e-06   -1.457282e-05   -3.106611e+03    8.939745e+00   -2.197695e+02
    3.344238e+02    3.480251e+01   -6.720896e-06   -1.211621e-05   -3.483382e+03   -4.238149e+01   -9.092936e+01
    2.781224e+02    3.674604e+01   -5.668987e-06   -8.786624e-06   -3.496357e+03   -4.639519e+01   -9.432543e+01
    2.438947e+02    4.703181e+01   -4.589537e-06   -6.947835e-06   -3.117876e+03    1.394317e+02   -3.405663e+02
    2.015060e+02    4.272630e+01   -4.038265e-06   -5.018189e-06   -3.655493e+03    1.106083e+02   -1.621672e+02
    1.666133e+02    3.600212e+01   -3.622485e-06   -3.678416e-06   -3.989587e+03    3.456602e+01   -2.164526e+02
    1.300911e+02    3.351276e+01   -2.943158e-06   -2.479164e-06   -4.492638e+03   -3.367001e+01   -2.417479e+02
    9.300220e+01    3.244224e+01   -2.154506e-06   -1.495173e-06   -4.807677e+03   -6.711399e+01   -2.801455e+02
    3.702599e+01    3.064777e+01   -8.621484e-07   -4.393416e-07   -5.618858e+03   -4.566012e+02   -5.497805e+02
    9.619408e+02    6.462822e+01   -8.992120e-06   -7.523418e-05   -4.085707e+02    6.468256e+02   -1.381505e+03
    9.319959e+02    7.263923e+01   -7.786893e-06   -7.040624e-05    5.447765e+02    6.960160e+02   -8.420117e+02
    9.022142e+02    6.906792e+01   -8.292369e-06   -6.599813e-05    4.708366e+02    6.807364e+02   -6.215220e+02
    8.675388e+02    6.457540e+01   -8.829817e-06   -6.128005e-05   -4.184157e+02    5.848701e+02   -3.403034e+02
    8.330455e+02    6.419656e+01   -8.772764e-06   -5.698229e-05   -9.968021e+02    7.992784e+01   -1.008197e+02
    8.011627e+02    6.396289e+01   -8.682368e-06   -5.329261e-05   -1.013062e+03    1.833848e+00    1.518340e+02
    7.660134e+02    6.740974e+01   -8.158927e-06   -4.944815e-05   -9.395424e+02   -8.352392e+01    9.573874e+00
    7.295940e+02    6.819060e+01   -7.918696e-06   -4.564234e-05   -1.039405e+03   -1.406363e+02    1.146150e+02
    7.118008e+02    6.822751e+01   -7.830488e-06   -4.383160e-05   -1.031204e+03   -1.466548e+02    4.410198e+01
    6.723568e+02    6.837837e+01   -7.608568e-06   -3.990997e-05   -1.058758e+03   -6.041147e+01   -1.462521e+02
    6.374921e+02    6.909612e+01   -7.335738e-06   -3.653986e-05   -1.460311e+03   -9.318926e+01   -2.741300e+02
    6.071329e+02    7.651407e+01   -6.474558e-06   -3.366769e-05   -1.049851e+03    1.072501e+01   -3.198754e+02
    5.702828e+02    7.325125e+01   -6.523628e-06   -3.029644e-05   -1.518314e+03   -2.290003e+01   -3.343285e+02
    5.336249e+02    8.256087e+01   -5.491284e-06   -2.703699e-05   -1.586988e+03   -7.956324e+01   -4.277266e+02
    4.962810e+02    6.442011e+01   -6.660926e-06   -2.390788e-05   -2.028657e+03   -5.122629e+01   -2.828378e+02
    4.715999e+02    7.028369e+01   -5.984238e-06   -2.187373e-05   -1.926447e+03    1.013229e+00   -3.902162e+02
    4.406782e+02    8.026559e+01   -4.980552e-06   -1.941407e-05   -1.424683e+03    1.488835e+02   -5.135405e+02
    3.653822e+02    7.524156e+01   -4.633490e-06   -1.397937e-05   -1.961776e+03    5.830747e+01   -3.489565e+02
    3.331838e+02    6.307292e+01   -5.018447e-06   -1.192117e-05   -2.649890e+03    2.731038e+01   -4.118081e+02
    3.059041e+02    7.070292e+01   -4.261241e-06   -1.022499e-05   -2.367445e+03   -7.712795e+00   -3.235444e+02
    2.847870e+02    7.037041e+01   -4.025870e-06   -9.009788e-06   -2.478600e+03    6.016273e+00   -4.523143e+02
    2.430865e+02    7.315153e+01   -3.388388e-06   -6.795142e-06   -2.505134e+03    9.479655e+01   -3.490542e+02
    1.943562e+02    8.447344e+01   -2.345976e-06   -4.534706e-06   -2.147770e+03    2.215103e+02   -3.031072e+02
    1.680642e+02    7.413290e+01   -2.380292e-06   -3.540156e-06   -2.570729e+03    1.201775e+02   -2.948903e+02
    1.375644e+02    6.842744e+01   -2.119467e-06   -2.518797e-06   -3.140131e+03    8.679073e-01   -3.430757e+02
    1.037543e+02    6.532044e+01   -1.669113e-06   -1.569122e-06   -3.133771e+03    7.522070e+01   -2.878325e+02
    6.884058e+01    6.319770e+01   -1.125882e-06   -8.022022e-07   -3.614401e+03   -1.355886e+02   -3.729353e+02
    3.398313e+01    6.115211e+01   -5.499907e-07   -2.610596e-07   -3.954369e+03   -4.908864e+02   -4.376421e+02
    9.246990e+02    1.050377e+02   -3.282508e-06   -6.924774e-05    3.216853e+03    8.276198e+02   -1.468070e+03
    9.010825e+02    1.030089e+02   -3.834245e-06   -6.574950e-05    2.217172e+03    9.415766e+02   -1.223059e+03
    8.635642e+02    9.619501e+01   -4.919937e-06   -6.069083e-05    1.088369e+03    7.786651e+02   -6.403677e+02
    8.339833e+02    1.043007e+02   -4.087244e-06   -5.703527e-05    8.424917e+02    4.955381e+02   -4.416075e+02
    7.972067e+02    1.058771e+02   -4.013524e-06   -5.282919e-05    4.071662e+02    1.279390e+02   -1.547334e+02
    7.643247e+02    1.023041e+02   -4.436816e-06   -4.926664e-05   -6.230709e+01   -1.318110e+02   -1.104407e+02
    7.310397e+02    1.064747e+02   -4.015946e-06   -4.579208e-05   -3.861925e+02   -2.951727e+02   -1.703082e+02
    6.989859e+02    9.376187e+01   -5.243922e-06   -4.253478e-05   -6.396189e+02   -2.346562e+02   -1.414090e+02
    6.587865e+02    1.051171e+02   -4.062907e-06   -3.856966e-05   -5.155090e+02   -1.891775e+02   -2.876004e+02
    6.453084e+02    9.748550e+01   -4.737789e-06   -3.726507e-05   -5.707547e+02   -1.180450e+02   -2.794679e+02
    6.001399e+02    9.702213e+01   -4.613569e-06   -3.299487e-05   -9.545014e+02   -1.324179e+02   -3.306939e+02
    5.746379e+02    1.109298e+02   -3.309259e-06   -3.064453e-05   -6.130061e+02   -6.538856e+01   -4.495444e+02
    5.344307e+02    9.942481e+01   -4.111535e-06   -2.708033e-05   -1.003484e+03   -1.857169e+01   -3.966522e+02
    4.986144e+02    9.501269e+01   -4.273918e-06   -2.403364e-05   -1.082235e+03    1.594257e+00   -4.221251e+02
    4.598426e+02    1.178347e+02   -2.361925e-06   -2.084746e-05   -6.654976e+02    2.946322e+01   -4.747083e+02
    4.338857e+02    1.013318e+02   -3.427907e-06   -1.885309e-05   -1.110506e+03    2.187038e+01   -4.935555e+02
    3.918939e+02    1.052987e+02   -2.911830e-06   -1.574761e-05   -1.227159e+03   -8.644293e-01   -4.454874e+02
    3.580800e+02    1.061767e+02   -2.659609e-06   -1.341810e-05   -1.380454e+03   -4.968643e+01   -4.603920e+02
    3.285407e+02    9.256190e+01   -3.258831e-06   -1.153753e-05   -1.488088e+03    4.617652e+01   -4.011578e+02
    2.982952e+02    1.006172e+02   -2.582115e-06   -9.692666e-06   -1.519529e+03   -7.513599e+00   -3.928839e+02
    2.658076e+02    1.058181e+02   -2.091802e-06   -7.872453e-06   -1.390426e+03    3.002533e+01   -5.536192e+02
    2.424634e+02    9.821131e+01   -2.259994e-06   -6.687766e-06   -1.582507e+03    4.859626e+01   -4.374079e+02
    1.949597e+02    1.075315e+02   -1.514662e-06   -4.495823e-06   -1.539643e+03    1.905800e+00   -4.574881e+02
    1.616098e+02    1.113673e+02   -1.150011e-06   -3.190670e-06   -1.095481e+03    2.409904e+02   -3.277188e+02
    1.371691e+02    1.042253e+02   -1.164290e-06   -2.381605e-06   -1.309347e+03    2.434405e+02   -3.113623e+02
    1.102156e+02    9.778075e+01   -1.070618e-06   -1.614012e-06   -1.823008e+03    8.439866e+01   -3.805689e+02
    7.921872e+01    9.422656e+01   -8.146241e-07   -8.937419e-07   -2.224057e+03   -7.790383e+01   -4.362345e+02
    2.989566e+01    1.060958e+02   -2.293628e-07   -1.344572e-07   -2.040194e+03   -4.344647e+02   -3.546945e+02
    8.663509e+02    1.346469e+02   -5.078647e-07   -6.094749e-05    2.917301e+03    1.794720e+03   -1.930884e+03
    8.281070e+02    1.227527e+02   -2.071246e-06   -5.632229e-05    1.304098e+03    5.112912e+02   -6.549379e+02
    7.933209e+02    1.332610e+02   -1.136239e-06   -5.241223e-05    1.014931e+03    2.245827e+02   -5.088112e+02
    7.730055e+02    1.435224e+02   -1.898910e-07   -5.023580e-05    1.003849e+03    7.368520e+01   -5.630862e+02
    7.294921e+02    1.361418e+02   -1.072654e-06   -4.567575e-05    3.611498e+02   -2.724399e+02   -3.899566e+02
    6.931642e+02    1.338855e+02   -1.359062e-06   -4.198833e-05    1.880927e+02   -3.032574e+02   -3.243458e+02
    6.597402e+02    1.401796e+02   -8.045843e-07   -3.868767e-05    1.940000e+02   -2.460749e+02   -4.395839e+02
    6.378159e+02    1.337180e+02   -1.404257e-06   -3.655432e-05   -1.027121e+02   -1.625747e+02   -4.558962e+02
    5.993483e+02    1.350009e+02   -1.275330e-06   -3.291305e-05   -1.944119e+02   -7.523319e+01   -4.696203e+02
    5.652271e+02    1.427638e+02   -5.937518e-07   -2.978905e-05    3.427172e+01   -2.460129e+01   -5.298659e+02
    5.288365e+02    1.373388e+02   -1.015668e-06   -2.656849e-05   -2.759607e+02   -7.351135e+01   -4.765439e+02
    4.965981e+02    1.348770e+02   -1.169305e-06   -2.382687e-05   -1.980829e+02    1.468083e+01   -5.104555e+02
    4.595656e+02    1.389835e+02   -8.087006e-07   -2.081246e-05   -2.357319e+02   -1.145091e+01   -5.192391e+02
    4.263207e+02    1.379134e+02   -8.371678e-07   -1.823753e-05   -2.754435e+02   -3.152333e+01   -5.011401e+02
    3.963232e+02    1.305138e+02   -1.278304e-06   -1.603285e-05   -5.326233e+02   -3.557367e+00   -4.901269e+02
    3.573293e+02    1.373447e+02   -7.664751e-07   -1.333250e-05   -4.526303e+02   -2.412121e+01   -5.154359e+02
    3.267662e+02    1.372849e+02   -7.161431e-07   -1.136085e-05   -2.650964e+01    9.189616e+01   -5.412804e+02
    2.971226e+02    1.324889e+02   -9.107320e-07   -9.578535e-06   -4.832435e+02    1.311029e+01   -5.053310e+02
    2.707088e+02    1.365627e+02   -6.462892e-07   -8.094545e-06   -7.053958e+02   -3.641427e+01   -5.080523e+02
    2.270498e+02    1.322408e+02   -7.296339e-07   -5.885630e-06   -6.204649e+02   -6.059590e+01   -5.027699e+02
    1.931500e+02    1.324650e+02   -6.160521e-07   -4.381403e-06   -7.286982e+02   -1.312960e+02   -5.539007e+02
    1.672371e+02    1.449005e+02   -1.534294e-07   -3.357928e-06   -1.388167e+02    1.117378e+01   -5.036744e+02
    1.041720e+02    1.319477e+02   -3.419299e-07   -1.389195e-06   -1.126284e+03   -1.816805e+02   -5.554165e+02
    7.369271e+01    1.225403e+02   -3.665879e-07   -7.274732e-07   -1.278004e+03   -9.170006e+01   -4.483544e+02
    2.879399e+01    1.356113e+02   -7.096711e-08   -1.071074e-07   -8.391871e+02   -1.581884e+02   -1.911935e+02
    8.290059e+02    1.618928e+02    1.936417e-06   -5.633302e-05    1.581028e+03    1.268464e+03   -1.298746e+03
    7.991758e+02    1.660179e+02    2.159380e-06   -5.304781e-05    1.464659e+03    6.707828e+02   -9.587190e+02
    7.688045e+02    1.692407e+02    2.302348e-06   -4.982622e-05    1.241165e+03    1.152471e+02   -7.665114e+02
    7.303623e+02    1.707809e+02    2.262083e-06   -4.583842e-05    8.931674e+02   -2.154581e+02   -6.197097e+02
    6.937867e+02    1.716092e+02    2.192961e-06   -4.212210e-05    6.432088e+02   -2.767766e+02   -5.760484e+02
    6.531464e+02    1.587858e+02    8.902174e-07   -3.807030e-05    3.886588e+02   -2.048952e+02   -5.298525e+02
    6.335460e+02    1.664848e+02    1.541722e-06   -3.618396e-05    3.984298e+02   -1.760957e+02   -5.670210e+02
    6.043212e+02    1.604980e+02    9.538015e-07   -3.339803e-05    2.904491e+02   -1.442765e+02   -5.293465e+02
    5.750327e+02    1.647447e+02    1.271557e-06   -3.069435e-05    4.487648e+02   -9.369026e+01   -4.740171e+02
    5.402868e+02    1.677569e+02    1.460130e-06   -2.758160e-05    4.532713e+02    7.452182e+00   -4.770872e+02
    5.055929e+02    1.649120e+02    1.167274e-06   -2.458687e-05    3.320239e+02   -3.182599e+01   -4.873692e+02
    4.631967e+02    1.517927e+02    1.302023e-07   -2.110046e-05   -6.205221e+01   -5.521725e+01   -4.671401e+02
    4.300876e+02    1.608024e+02    7.530719e-07   -1.852321e-05    1.454981e+02   -3.717646e+01   -4.800601e+02
    3.994117e+02    1.553709e+02    3.537549e-07   -1.624879e-05    4.352741e+01   -7.220370e+01   -5.266256e+02
    3.601932e+02    1.558853e+02    3.575957e-07   -1.352113e-05    1.759155e+02   -4.208028e+00   -4.970895e+02
    3.300891e+02    1.528641e+02    1.607021e-07   -1.156579e-05   -2.183252e+02   -1.321019e+02   -4.006465e+02
    3.000348e+02    1.698254e+02    1.038635e-06   -9.749834e-06    6.003939e+02   -6.216867e+01   -4.998441e+02
    2.723531e+02    1.631591e+02    6.333183e-07   -8.185690e-06    6.704308e+02    1.454602e+02   -4.579885e+02
    2.290083e+02    1.659330e+02    6.565983e-07   -5.976390e-06    5.382629e+02   -9.041925e+00   -5.097537e+02
    2.028013e+02    1.600990e+02    3.732525e-07   -4.787644e-06    3.567293e+02    7.589419e+00   -5.129075e+02
    1.695499e+02    1.624562e+02    3.905014e-07   -3.446438e-06    5.515463e+02    2.556605e+01   -4.949758e+02
    1.349701e+02    1.651514e+02    3.762596e-07   -2.260675e-06    8.214312e+02    1.002154e+02   -4.703865e+02
    9.206303e+01    1.695909e+02    3.280016e-07   -1.102500e-06    9.648539e+02    8.649004e+01   -5.242276e+02
    5.560279e+01    1.635761e+02    1.345417e-07   -4.101393e-07    4.897911e+02    4.916699e+01   -4.484021e+02
    2.878163e+01    1.650446e+02    7.472148e-08   -1.070827e-07    5.920583e+02    1.271821e+02   -2.790170e+02
    7.995828e+02    2.078622e+02    6.033519e-06   -5.301002e-05    9.682821e+02    1.024935e+03   -9.901321e+02
    7.635002e+02    1.972391e+02    4.908653e-06   -4.930658e-05    1.126217e+03    1.122232e+02   -8.611439e+02
    7.305182e+02    1.859296e+02    3.688380e-06   -4.588786e-05    9.027255e+02   -2.204797e+02   -6.984211e+02
    6.990721e+02    1.943228e+02    4.322139e-06   -4.270637e-05    8.830199e+02   -2.590610e+02   -6.543857e+02
    6.614589e+02    1.880441e+02    3.580478e-06   -3.894059e-05    7.605185e+02   -2.370582e+02   -5.827475e+02
    6.339238e+02    1.922158e+02    3.845333e-06   -3.626391e-05    7.841520e+02   -1.880142e+02   -5.307519e+02
    6.053849e+02    1.912445e+02    3.644570e-06   -3.354260e-05    8.545407e+02   -1.239160e+02   -5.348563e+02
    5.725385e+02    1.944341e+02    3.784298e-06   -3.050434e-05    8.908903e+02   -4.167161e+01   -4.647014e+02
    5.400078e+02    1.894019e+02    3.229384e-06   -2.758133e-05    8.247469e+02   -5.125934e+01   -4.803889e+02
    4.988898e+02    1.879420e+02    2.945297e-06   -2.404553e-05    7.406840e+02   -5.777938e+01   -4.406161e+02
    4.667328e+02    1.840136e+02    2.518409e-06   -2.140468e-05    8.226537e+02   -1.589528e+00   -4.944366e+02
    4.380207e+02    1.840848e+02    2.412599e-06   -1.914923e-05    4.409940e+02   -1.050888e+02   -4.680068e+02
    3.911136e+02    1.936904e+02    2.840630e-06   -1.569078e-05    1.178254e+03    1.632846e+01   -4.197013e+02
    3.673198e+02    1.905322e+02    2.508369e-06   -1.403284e-05    1.090447e+03   -1.270379e+01   -4.634987e+02
    3.299107e+02    1.910703e+02    2.329324e-06   -1.158938e-05    1.094718e+03   -5.774152e+01   -4.356503e+02
    3.023943e+02    1.981953e+02    2.548568e-06   -9.932101e-06    1.584875e+03    3.702214e+01   -3.786566e+02
    2.747085e+02    1.901406e+02    1.954595e-06   -8.344149e-06    1.254602e+03   -5.599608e+01   -4.421743e+02
    2.367819e+02    1.976875e+02    2.034744e-06   -6.399220e-06    1.333618e+03   -9.629097e+01   -3.959909e+02
    2.016382e+02    1.885629e+02    1.420214e-06   -4.770811e-06    1.157073e+03   -5.134123e+01   -3.829494e+02
    1.722790e+02    1.844670e+02    1.097920e-06   -3.576983e-06    1.403479e+03    4.425905e+01   -4.711524e+02
    1.132341e+02    1.946550e+02    9.369539e-07   -1.673632e-06    1.525127e+03   -5.142044e+01   -4.266846e+02
    6.709079e+01    1.913058e+02    5.042942e-07   -6.298308e-07    1.750882e+03    9.328850e+01   -4.385591e+02
    2.944918e+01    1.946710e+02    2.281756e-07   -1.314307e-07    1.847962e+03    3.831891e+02   -3.388511e+02
    8.002686e+02    2.333959e+02    8.315158e-06   -5.299198e-05    4.166750e+02    8.187200e+02   -5.998774e+02
    7.627805e+02    2.282676e+02    7.756129e-06   -4.925452e-05    8.479479e+02    1.769155e+02   -7.940861e+02
    7.320197e+02    2.320045e+02    7.968450e-06   -4.612963e-05    9.792356e+02   -5.615640e+01   -7.036781e+02
    6.961413e+02    2.334835e+02    7.923118e-06   -4.249903e-05    1.195003e+03   -4.167823e+01   -5.998432e+02
    6.373691e+02    2.262874e+02    6.922519e-06   -3.666961e-05    1.228286e+03   -1.007630e+02   -5.564960e+02
    5.994410e+02    2.277463e+02    6.811036e-06   -3.305602e-05    1.277965e+03   -9.085281e+01   -4.577983e+02
    5.722002e+02    2.326462e+02    7.044596e-06   -3.055078e-05    1.494047e+03   -1.394264e+02   -4.716368e+02
    5.304521e+02    2.265754e+02    6.219608e-06   -2.681540e-05    1.646180e+03   -7.992647e+01   -4.015646e+02
    5.046981e+02    2.281359e+02    6.142654e-06   -2.461083e-05    1.631675e+03   -6.526494e+01   -3.970574e+02
    4.758349e+02    2.252277e+02    5.675232e-06   -2.221263e-05    1.600666e+03   -8.837004e+01   -4.240111e+02
    4.368857e+02    2.330415e+02    5.904072e-06   -1.916509e-05    2.062504e+03   -1.043469e+01   -2.670232e+02
    4.016624e+02    2.340921e+02    5.619556e-06   -1.654507e-05    2.312773e+03   -5.611445e+00   -3.627699e+02
    3.766387e+02    2.301283e+02    5.089305e-06   -1.476483e-05    2.191550e+03   -1.335966e+02   -3.474061e+02
    3.273024e+02    2.308344e+02    4.591302e-06   -1.152980e-05    2.384815e+03    4.430818e+00   -3.869164e+02
    3.023736e+02    2.319401e+02    4.361619e-06   -1.002527e-05    2.534645e+03    1.535199e+01   -3.292632e+02
    2.776531e+02    2.352350e+02    4.221564e-06   -8.634344e-06    2.589714e+03   -1.054207e+02   -4.067514e+02
    2.393972e+02    2.408774e+02    3.968075e-06   -6.671189e-06    2.741994e+03   -9.488107e+01   -3.009011e+02
    2.043846e+02    2.275916e+02    2.922793e-06   -5.000018e-06    2.568424e+03   -8.099485e+01   -2.357131e+02
    1.666111e+02    2.271251e+02    2.401077e-06   -3.492299e-06    2.693434e+03   -6.224396e+01   -3.429912e+02
    1.024446e+02    2.176588e+02    1.298846e-06   -1.462518e-06    2.615618e+03   -5.669887e+01   -3.009242e+02
    6.817910e+01    2.275536e+02    9.837954e-07   -7.487169e-07    3.495837e+03    1.769346e+02   -3.804429e+02
    3.386841e+01    2.366869e+02    5.339197e-07   -2.527520e-07    4.005352e+03    6.040220e+02   -4.830545e+02
    7.678120e+02    2.704157e+02    1.166978e-05   -4.976200e-05    4.481674e+02    1.173438e+02   -3.794072e+02
    7.397474e+02    2.676847e+02    1.133369e-05   -4.695748e-05    7.554475e+02    1.518635e+01   -4.602085e+02
    7.070886e+02    2.578859e+02    1.025931e-05   -4.365063e-05    1.033992e+03   -4.337341e+01   -5.186002e+02
    6.740212e+02    2.631442e+02    1.055456e-05   -4.035321e-05    1.346361e+03   -5.381296e+01   -4.008593e+02
    6.388010e+02    2.622326e+02    1.021170e-05   -3.689530e-05    1.561700e+03   -7.391057e+01   -3.501266e+02
    6.028549e+02    2.556400e+02    9.314513e-06   -3.344892e-05    1.674474e+03   -4.834715e+01   -3.411548e+02
    5.677800e+02    2.653745e+02    9.845354e-06   -3.024181e-05    2.110662e+03   -1.355099e+01   -2.433626e+02
    5.379463e+02    2.691390e+02    9.844686e-06   -2.759572e-05    2.357091e+03   -5.658693e+01   -2.664286e+02
    5.069839e+02    2.558187e+02    8.390660e-06   -2.488540e-05    2.222316e+03   -1.432088e+01   -2.865764e+02
    4.680513e+02    2.642945e+02    8.598536e-06   -2.171315e-05    2.632481e+03   -2.406790e+01   -2.243605e+02
    4.358844e+02    2.663636e+02    8.324957e-06   -1.920672e-05    2.910451e+03    2.673333e+00   -2.565018e+02
    4.028743e+02    2.583409e+02    7.297453e-06   -1.672204e-05    2.769568e+03   -1.947022e+00   -2.500250e+02
    3.670638e+02    2.635797e+02    7.130512e-06   -1.424163e-05    3.175617e+03   -2.193331e+01   -1.898705e+02