TITLE="test case governed by poisson equation"
VARIABLES="x""y""z""sigaxy"
ZONE N=    2976,E=    1860,ET=BRICK,F=FEPOINT
    5.000000e+01    0.000000e+00    6.000000e+01    8.329673e+03
    4.980973e+01    4.357787e+00    6.000000e+01    1.212603e+04
    4.924039e+01    8.682409e+00    6.000000e+01    1.872875e+04
    4.829629e+01    1.294095e+01    6.000000e+01    2.670154e+04
    4.698463e+01    1.710101e+01    6.000000e+01    3.010175e+04
    4.531539e+01    2.113091e+01    6.000000e+01    2.761830e+04
    4.330127e+01    2.500000e+01    6.000000e+01    2.094775e+04
    4.095760e+01    2.867882e+01    6.000000e+01    1.229133e+04
    3.830222e+01    3.213938e+01    6.000000e+01    4.106928e+03
    3.535534e+01    3.535534e+01    6.000000e+01   -1.381831e+03
    3.213938e+01    3.830222e+01    6.000000e+01   -2.606866e+03
    2.867882e+01    4.095760e+01    6.000000e+01    1.131323e+03
    2.500000e+01    4.330127e+01    6.000000e+01    9.587739e+03
    2.113091e+01    4.531539e+01    6.000000e+01    2.166260e+04
    1.710101e+01    4.698463e+01    6.000000e+01    3.555107e+04
    1.294095e+01    4.829629e+01    6.000000e+01    4.908428e+04
    8.682409e+00    4.924039e+01    6.000000e+01    6.009480e+04
    4.357787e+00    4.980973e+01    6.000000e+01    6.663071e+04
    0.000000e+00    5.000000e+01    6.000000e+01    6.746475e+04
   -4.357787e+00    4.980973e+01    6.000000e+01    6.231312e+04
   -8.682409e+00    4.924039e+01    6.000000e+01    5.169612e+04
   -1.294095e+01    4.829629e+01    6.000000e+01    3.731772e+04
   -1.710101e+01    4.698463e+01    6.000000e+01    2.166949e+04
   -2.113091e+01    4.531539e+01    6.000000e+01    7.814323e+03
   -2.500000e+01    4.330127e+01    6.000000e+01   -1.116500e+03
   -2.867882e+01    4.095760e+01    6.000000e+01   -2.715371e+03
   -3.213938e+01    3.830222e+01    6.000000e+01    4.206941e+03
   -3.535534e+01    3.535534e+01    6.000000e+01    1.925425e+04
   -3.830222e+01    3.213938e+01    6.000000e+01    3.998881e+04
   -4.095760e+01    2.867882e+01    6.000000e+01    6.215120e+04
   -4.330127e+01    2.500000e+01    6.000000e+01    7.934238e+04
   -4.531539e+01    2.113091e+01    6.000000e+01    8.470796e+04
   -4.698463e+01    1.710101e+01    6.000000e+01    7.039857e+04
   -4.829629e+01    1.294095e+01    6.000000e+01    4.175406e+04
   -4.924039e+01    8.682409e+00    6.000000e+01    2.248657e+04
   -4.980973e+01    4.357787e+00    6.000000e+01    2.248657e+04
   -5.000000e+01    0.000000e+00    6.000000e+01    4.652839e+03
   -4.600000e+01    0.000000e+00    6.000000e+01    2.587473e+03
   -4.200000e+01    0.000000e+00    6.000000e+01   -1.844132e+02
   -3.800000e+01    0.000000e+00    6.000000e+01   -3.651830e+03
   -3.400000e+01    0.000000e+00    6.000000e+01   -8.916071e+03
   -3.000000e+01    0.000000e+00    6.000000e+01   -1.720977e+04
   -2.600000e+01    0.000000e+00    6.000000e+01   -2.867952e+04
   -2.200000e+01    0.000000e+00    6.000000e+01   -2.867952e+04
   -1.800000e+01    0.000000e+00    6.000000e+01    6.262491e+04
   -1.772654e+01    3.125667e+00    6.000000e+01    1.193888e+05
   -1.691447e+01    6.156363e+00    6.000000e+01    1.371383e+05
   -1.558846e+01    9.000000e+00    6.000000e+01    1.268137e+05
   -1.378880e+01    1.157018e+01    6.000000e+01    9.382038e+04
   -1.157018e+01    1.378880e+01    6.000000e+01    5.058204e+04
   -9.000000e+00    1.558846e+01    6.000000e+01    1.102974e+04
   -6.156363e+00    1.691447e+01    6.000000e+01   -1.731798e+04
   -3.125667e+00    1.772654e+01    6.000000e+01   -3.209395e+04
    0.000000e+00    1.800000e+01    6.000000e+01   -3.154705e+04
    3.125667e+00    1.772654e+01    6.000000e+01   -1.102286e+04
    6.156363e+00    1.691447e+01    6.000000e+01    3.614664e+04
    9.000000e+00    1.558846e+01    6.000000e+01    1.118585e+05
    1.157018e+01    1.378880e+01    6.000000e+01    2.023276e+05
    1.378880e+01    1.157018e+01    6.000000e+01    2.639275e+05
    1.558846e+01    9.000000e+00    6.000000e+01    2.482497e+05
    1.691447e+01    6.156363e+00    6.000000e+01    1.531503e+05
    1.772654e+01    3.125667e+00    6.000000e+01    1.531503e+05
    1.800000e+01    0.000000e+00    6.000000e+01    2.286365e+04
    2.200000e+01    0.000000e+00    6.000000e+01    1.726349e+04
    2.600000e+01    0.000000e+00    6.000000e+01    1.073272e+04
    3.000000e+01    0.000000e+00    6.000000e+01    5.393493e+03
    3.400000e+01    0.000000e+00    6.000000e+01    1.974117e+03
    3.800000e+01    0.000000e+00    6.000000e+01    1.974117e+03
    4.200000e+01    0.000000e+00    6.000000e+01   -2.971263e+03
    4.600000e+01    0.000000e+00    6.000000e+01    1.702180e+03
   -2.473863e+01    8.000000e+00    6.000000e+01    7.864592e+03
   -2.886174e+01    8.000000e+00    6.000000e+01    6.332627e+03
   -3.298485e+01    8.000000e+00    6.000000e+01    3.378326e+03
   -3.710795e+01    8.000000e+00    6.000000e+01   -4.578477e+03
   -4.123106e+01    8.000000e+00    6.000000e+01   -1.276222e+04
   -4.038926e+01    1.151989e+01    6.000000e+01   -1.276222e+04
   -3.924756e+01    1.495423e+01    6.000000e+01    1.012348e+04
   -3.781444e+01    1.827754e+01    6.000000e+01    8.025174e+03
   -3.610053e+01    2.146513e+01    6.000000e+01    5.720731e+03
   -3.411856e+01    2.449334e+01    6.000000e+01    3.865545e+03
   -3.188326e+01    2.733967e+01    6.000000e+01    2.759301e+03
   -2.941121e+01    2.998300e+01    6.000000e+01    2.453702e+03
   -2.672078e+01    3.240370e+01    6.000000e+01    2.818330e+03
   -2.383193e+01    3.458380e+01    6.000000e+01    3.603285e+03
   -2.076613e+01    3.650709e+01    6.000000e+01    4.501764e+03
   -1.754613e+01    3.815931e+01    6.000000e+01    5.212729e+03
   -1.419585e+01    3.952819e+01    6.000000e+01    5.492027e+03
   -1.074016e+01    4.060356e+01    6.000000e+01    5.188867e+03
   -7.204722e+00    4.137743e+01    6.000000e+01    4.263439e+03
   -3.615785e+00    4.184407e+01    6.000000e+01    2.788342e+03
    0.000000e+00    4.200000e+01    6.000000e+01    9.300563e+02
    3.615785e+00    4.184407e+01    6.000000e+01   -1.080537e+03
    7.204722e+00    4.137743e+01    6.000000e+01   -2.985018e+03
    1.074016e+01    4.060356e+01    6.000000e+01   -4.544029e+03
    1.419585e+01    3.952819e+01    6.000000e+01   -5.575467e+03
    1.754613e+01    3.815931e+01    6.000000e+01   -5.986360e+03
    2.076613e+01    3.650709e+01    6.000000e+01   -5.794844e+03
    2.383193e+01    3.458380e+01    6.000000e+01   -5.131565e+03
    2.672078e+01    3.240370e+01    6.000000e+01   -4.225464e+03
    2.941121e+01    2.998300e+01    6.000000e+01   -3.370678e+03
    3.188326e+01    2.733967e+01    6.000000e+01   -2.877421e+03
    3.411856e+01    2.449334e+01    6.000000e+01   -3.011458e+03
    3.610053e+01    2.146513e+01    6.000000e+01   -3.928456e+03
    3.781444e+01    1.827754e+01    6.000000e+01   -5.611586e+03
    3.924756e+01    1.495423e+01    6.000000e+01   -7.799999e+03
    4.038926e+01    1.151989e+01    6.000000e+01   -9.939261e+03
    4.123106e+01    8.000000e+00    6.000000e+01   -1.104060e+04
    3.710795e+01    8.000000e+00    6.000000e+01    6.709802e+03
    3.298485e+01    8.000000e+00    6.000000e+01    7.169094e+04
    2.886174e+01    8.000000e+00    6.000000e+01    1.207007e+05
    2.473863e+01    8.000000e+00    6.000000e+01    1.899313e+05
    2.291017e+01    1.229325e+01    6.000000e+01    1.891362e+04
    2.034373e+01    1.619051e+01    6.000000e+01   -3.788553e+03
    1.712198e+01    1.956624e+01    6.000000e+01   -2.248798e+04
    1.334870e+01    2.231171e+01    6.000000e+01   -3.036510e+04
    9.145430e+00    2.433847e+01    6.000000e+01   -2.836290e+04
    4.647568e+00    2.558125e+01    6.000000e+01   -2.022130e+04
    0.000000e+00    2.600000e+01    6.000000e+01    4.998607e+03
   -4.647568e+00    2.558125e+01    6.000000e+01    1.058602e+04
   -9.145430e+00    2.433847e+01    6.000000e+01    1.513100e+04
   -1.334870e+01    2.231171e+01    6.000000e+01    1.657033e+04
   -1.712198e+01    1.956624e+01    6.000000e+01    1.226989e+04
   -2.034373e+01    1.619051e+01    6.000000e+01    1.064249e+03
   -2.291017e+01    1.229325e+01    6.000000e+01   -1.436781e+04
   -2.163875e+01    3.628618e+00    6.000000e+01    5.662444e+04
    2.161991e+01    3.629295e+00    6.000000e+01    1.304888e+05
   -4.573892e+01    4.102273e+00    6.000000e+01    9.338650e+03
    4.571434e+01    4.109567e+00    6.000000e+01   -7.832477e+03
   -4.165214e+01    4.015303e+00    6.000000e+01    9.338650e+03
    4.523563e+01    8.152204e+00    6.000000e+01   -1.104060e+04
    4.437674e+01    1.211971e+01    6.000000e+01   -9.939261e+03
    4.315033e+01    1.594729e+01    6.000000e+01   -7.799999e+03
    4.160183e+01    1.963603e+01    6.000000e+01   -5.611586e+03
    3.973977e+01    2.317461e+01    6.000000e+01   -3.928456e+03
    3.757867e+01    2.653596e+01    6.000000e+01   -3.011458e+03
    3.513408e+01    2.969708e+01    6.000000e+01   -2.877421e+03
    3.242410e+01    3.263458e+01    6.000000e+01   -3.370678e+03
    2.946928e+01    3.532560e+01    6.000000e+01   -4.225464e+03
    2.629204e+01    3.775009e+01    6.000000e+01   -5.131565e+03
    2.291615e+01    3.988993e+01    6.000000e+01   -5.794844e+03
    1.936715e+01    4.172848e+01    6.000000e+01   -5.986360e+03
    1.567232e+01    4.325198e+01    6.000000e+01   -5.575467e+03
    1.185889e+01    4.444924e+01    6.000000e+01   -4.544029e+03
    7.955883e+00    4.531076e+01    6.000000e+01   -2.985018e+03
    3.993184e+00    4.583030e+01    6.000000e+01   -1.080537e+03
    0.000000e+00    4.600405e+01    6.000000e+01    9.300563e+02
   -3.993184e+00    4.583030e+01    6.000000e+01    2.788342e+03
   -7.955646e+00    4.531081e+01    6.000000e+01    4.263439e+03
   -1.185862e+01    4.444932e+01    6.000000e+01    5.188867e+03
   -1.567211e+01    4.325205e+01    6.000000e+01    5.492027e+03
   -1.936793e+01    4.172808e+01    6.000000e+01    5.212729e+03
   -2.291897e+01    3.988821e+01    6.000000e+01    4.501764e+03
   -2.629731e+01    3.774624e+01    6.000000e+01    3.603285e+03
   -2.947697e+01    3.531904e+01    6.000000e+01    2.818330e+03
   -3.243381e+01    3.262479e+01    6.000000e+01    2.453702e+03
   -3.514428e+01    2.968480e+01    6.000000e+01    2.759301e+03
   -3.759023e+01    2.651936e+01    6.000000e+01    3.865545e+03
   -3.975154e+01    2.315402e+01    6.000000e+01    5.720731e+03
   -4.161308e+01    1.961149e+01    6.000000e+01    8.025174e+03
   -4.315985e+01    1.592045e+01    6.000000e+01    1.012348e+04
   -4.438299e+01    1.209670e+01    6.000000e+01   -1.276222e+04
   -4.524409e+01    8.137423e+00    6.000000e+01   -1.276222e+04
   -2.076586e+01    7.239084e+00    6.000000e+01    5.662444e+04
   -1.923903e+01    1.070065e+01    6.000000e+01   -1.436781e+04
   -1.706956e+01    1.390049e+01    6.000000e+01    1.064249e+03
   -1.435218e+01    1.669166e+01    6.000000e+01    1.226989e+04
   -1.117956e+01    1.896378e+01    6.000000e+01    1.657033e+04
   -7.653899e+00    2.064061e+01    6.000000e+01    1.513100e+04
   -3.887942e+00    2.166817e+01    6.000000e+01    1.058602e+04
    0.000000e+00    2.201434e+01    6.000000e+01    4.998607e+03
    3.887962e+00    2.166817e+01    6.000000e+01   -2.022130e+04
    7.653766e+00    2.064067e+01    6.000000e+01   -2.836290e+04
    1.117939e+01    1.896389e+01    6.000000e+01   -3.036510e+04
    1.435153e+01    1.669225e+01    6.000000e+01   -2.248798e+04
    1.706858e+01    1.390179e+01    6.000000e+01   -3.788553e+03
    1.923739e+01    1.070385e+01    6.000000e+01    1.891362e+04
    2.075951e+01    7.244071e+00    6.000000e+01    1.304888e+05
   -3.761756e+01    4.010140e+00    6.000000e+01   -4.578477e+03
   -3.355935e+01    4.010137e+00    6.000000e+01    3.378326e+03
   -2.953620e+01    4.010619e+00    6.000000e+01    6.332627e+03
   -2.554584e+01    3.954124e+00    6.000000e+01    7.864592e+03
    2.551887e+01    3.953839e+00    6.000000e+01    1.899313e+05
    4.162606e+01    4.017016e+00    6.000000e+01   -7.832477e+03
    3.756564e+01    4.010135e+00    6.000000e+01    6.709802e+03
    2.949025e+01    4.010464e+00    6.000000e+01    1.207007e+05
    3.352269e+01    4.010140e+00    6.000000e+01    7.169094e+04
   -2.200000e+01    0.000000e+00    5.600000e+01   -7.285318e+03
   -2.163875e+01    3.628618e+00    5.600000e+01    2.736479e+04
   -1.772654e+01    3.125667e+00    5.600000e+01    4.772737e+04
   -1.800000e+01    0.000000e+00    5.600000e+01    2.211280e+04
   -2.200000e+01    0.000000e+00    5.200000e+01   -3.241981e+03
   -2.163875e+01    3.628618e+00    5.200000e+01    1.242204e+04
   -1.772654e+01    3.125667e+00    5.200000e+01    2.048682e+04
   -1.800000e+01    0.000000e+00    5.200000e+01    9.541468e+03
   -2.200000e+01    0.000000e+00    4.800000e+01   -1.590835e+03
   -2.163875e+01    3.628618e+00    4.800000e+01    5.465056e+03
   -1.772654e+01    3.125667e+00    4.800000e+01    9.181120e+03
   -1.800000e+01    0.000000e+00    4.800000e+01    4.372991e+03
   -2.200000e+01    0.000000e+00    4.400000e+01   -8.775201e+02
   -2.163875e+01    3.628618e+00    4.400000e+01    2.285992e+03
   -1.772654e+01    3.125667e+00    4.400000e+01    4.097979e+03
   -1.800000e+01    0.000000e+00    4.400000e+01    2.106991e+03
   -2.200000e+01    0.000000e+00    4.000000e+01   -5.087082e+02
   -2.163875e+01    3.628618e+00    4.000000e+01    9.789289e+02
   -1.772654e+01    3.125667e+00    4.000000e+01    1.956594e+03
   -1.800000e+01    0.000000e+00    4.000000e+01    1.061100e+03
   -2.200000e+01    0.000000e+00    3.600000e+01   -2.984687e+02
   -2.163875e+01    3.628618e+00    3.600000e+01    6.116013e+02
   -1.772654e+01    3.125667e+00    3.600000e+01    1.202806e+03
   -1.800000e+01    0.000000e+00    3.600000e+01    5.934421e+02
   -2.200000e+01    0.000000e+00    3.200000e+01   -1.566311e+02
   -2.163875e+01    3.628618e+00    3.200000e+01    7.462970e+02
   -1.772654e+01    3.125667e+00    3.200000e+01    1.141031e+03
   -1.800000e+01    0.000000e+00    3.200000e+01    4.038651e+02
   -2.200000e+01    0.000000e+00    2.800000e+01   -2.381352e+01
   -2.163875e+01    3.628618e+00    2.800000e+01    1.211860e+03
   -1.772654e+01    3.125667e+00    2.800000e+01    1.477708e+03
   -1.800000e+01    0.000000e+00    2.800000e+01    3.765050e+02
   -2.200000e+01    0.000000e+00    2.400000e+01    1.656073e+02
   -2.163875e+01    3.628618e+00    2.400000e+01    1.999566e+03
   -1.772654e+01    3.125667e+00    2.400000e+01    2.128313e+03
   -1.800000e+01    0.000000e+00    2.400000e+01    4.930062e+02
   -2.200000e+01    0.000000e+00    2.000000e+01    5.123900e+02
   -2.163875e+01    3.628618e+00    2.000000e+01    3.220203e+03
   -1.772654e+01    3.125667e+00    2.000000e+01    3.105900e+03
   -1.800000e+01    0.000000e+00    2.000000e+01    7.943975e+02
   -2.200000e+01    0.000000e+00    1.600000e+01    1.194824e+03
   -2.163875e+01    3.628618e+00    1.600000e+01    5.129474e+03
   -1.772654e+01    3.125667e+00    1.600000e+01    4.453468e+03
   -1.800000e+01    0.000000e+00    1.600000e+01    1.320476e+03
   -2.200000e+01    0.000000e+00    1.200000e+01    2.552286e+03
   -2.163875e+01    3.628618e+00    1.200000e+01    8.103837e+03
   -1.772654e+01    3.125667e+00    1.200000e+01    6.183856e+03
   -1.800000e+01    0.000000e+00    1.200000e+01    2.171124e+03
   -2.200000e+01    0.000000e+00    8.000000e+00    5.453279e+03
   -2.163875e+01    3.628618e+00    8.000000e+00    1.366650e+04
   -1.772654e+01    3.125667e+00    8.000000e+00    7.756901e+03
   -1.800000e+01    0.000000e+00    8.000000e+00    2.982497e+03
   -2.200000e+01    0.000000e+00    4.000000e+00    1.176957e+04
   -2.163875e+01    3.628618e+00    4.000000e+00    2.687834e+04
   -1.772654e+01    3.125667e+00    4.000000e+00    1.863251e+04
   -1.800000e+01    0.000000e+00    4.000000e+00    1.073359e+04
   -2.200000e+01    0.000000e+00    0.000000e+00    1.176957e+04
   -2.163875e+01    3.628618e+00    0.000000e+00    2.687834e+04
   -1.772654e+01    3.125667e+00    0.000000e+00    1.863251e+04
   -1.800000e+01    0.000000e+00    0.000000e+00    1.073359e+04
    1.772654e+01    3.125667e+00    5.600000e+01    5.831431e+04
    2.161991e+01    3.629295e+00    5.600000e+01    6.247264e+04
    2.200000e+01    0.000000e+00    5.600000e+01    5.825752e+03
    1.800000e+01    0.000000e+00    5.600000e+01    5.313266e+03
    1.772654e+01    3.125667e+00    5.200000e+01    2.647523e+04
    2.161991e+01    3.629295e+00    5.200000e+01    2.941340e+04
    2.200000e+01    0.000000e+00    5.200000e+01    2.766308e+03
    1.800000e+01    0.000000e+00    5.200000e+01    2.500557e+03
    1.772654e+01    3.125667e+00    4.800000e+01    1.274962e+04
    2.161991e+01    3.629295e+00    4.800000e+01    1.389576e+04
    2.200000e+01    0.000000e+00    4.800000e+01    1.392698e+03
    1.800000e+01    0.000000e+00    4.800000e+01    1.255190e+03
    1.772654e+01    3.125667e+00    4.400000e+01    6.384446e+03
    2.161991e+01    3.629295e+00    4.400000e+01    6.519630e+03
    2.200000e+01    0.000000e+00    4.400000e+01    7.457283e+02
    1.800000e+01    0.000000e+00    4.400000e+01    7.226413e+02
    1.772654e+01    3.125667e+00    4.000000e+01    3.280896e+03
    2.161991e+01    3.629295e+00    4.000000e+01    3.108270e+03
    2.200000e+01    0.000000e+00    4.000000e+01    3.964479e+02
    1.800000e+01    0.000000e+00    4.000000e+01    4.343387e+02
    1.772654e+01    3.125667e+00    3.600000e+01    1.712828e+03
    2.161991e+01    3.629295e+00    3.600000e+01    1.647136e+03
    2.200000e+01    0.000000e+00    3.600000e+01    1.890529e+02
    1.800000e+01    0.000000e+00    3.600000e+01    2.541753e+02
    1.772654e+01    3.125667e+00    3.200000e+01    8.720682e+02
    2.161991e+01    3.629295e+00    3.200000e+01    1.156393e+03
    2.200000e+01    0.000000e+00    3.200000e+01    3.977181e+01
    1.800000e+01    0.000000e+00    3.200000e+01    1.146741e+02
    1.772654e+01    3.125667e+00    2.800000e+01    4.016172e+02
    2.161991e+01    3.629295e+00    2.800000e+01    1.168662e+03
    2.200000e+01    0.000000e+00    2.800000e+01   -1.107554e+02
    1.800000e+01    0.000000e+00    2.800000e+01   -2.881756e+01
    1.772654e+01    3.125667e+00    2.400000e+01    1.534200e+02
    2.161991e+01    3.629295e+00    2.400000e+01    1.476521e+03
    2.200000e+01    0.000000e+00    2.400000e+01   -3.285348e+02
    1.800000e+01    0.000000e+00    2.400000e+01   -2.304686e+02
    1.772654e+01    3.125667e+00    2.000000e+01    3.618522e+01
    2.161991e+01    3.629295e+00    2.000000e+01    1.984305e+03
    2.200000e+01    0.000000e+00    2.000000e+01   -7.159807e+02
    1.800000e+01    0.000000e+00    2.000000e+01   -5.795953e+02
    1.772654e+01    3.125667e+00    1.600000e+01   -1.778704e+02
    2.161991e+01    3.629295e+00    1.600000e+01    2.572220e+03
    2.200000e+01    0.000000e+00    1.600000e+01   -1.460273e+03
    1.800000e+01    0.000000e+00    1.600000e+01   -1.240839e+03
    1.772654e+01    3.125667e+00    1.200000e+01   -1.069450e+03
    2.161991e+01    3.629295e+00    1.200000e+01    3.142476e+03
    2.200000e+01    0.000000e+00    1.200000e+01   -2.907227e+03
    1.800000e+01    0.000000e+00    1.200000e+01   -2.548478e+03
    1.772654e+01    3.125667e+00    8.000000e+00   -4.214825e+03
    2.161991e+01    3.629295e+00    8.000000e+00    4.096396e+03
    2.200000e+01    0.000000e+00    8.000000e+00   -5.872396e+03
    1.800000e+01    0.000000e+00    8.000000e+00   -5.352878e+03
    1.772654e+01    3.125667e+00    4.000000e+00   -6.891634e+03
    2.161991e+01    3.629295e+00    4.000000e+00    1.224102e+04
    2.200000e+01    0.000000e+00    4.000000e+00   -1.209909e+04
    1.800000e+01    0.000000e+00    4.000000e+00   -1.274559e+04
    1.772654e+01    3.125667e+00    0.000000e+00   -6.891634e+03
    2.161991e+01    3.629295e+00    0.000000e+00    1.224102e+04
    2.200000e+01    0.000000e+00    0.000000e+00   -1.209909e+04
    1.800000e+01    0.000000e+00    0.000000e+00   -1.274559e+04
   -4.980973e+01    4.357787e+00    5.600000e+01    2.366705e+04
   -4.573892e+01    4.102273e+00    5.600000e+01    5.446597e+03
   -4.600000e+01    0.000000e+00    5.600000e+01    1.347850e+03
   -5.000000e+01    0.000000e+00    5.600000e+01    2.864819e+03
   -4.980973e+01    4.357787e+00    5.200000e+01    2.126244e+04
   -4.573892e+01    4.102273e+00    5.200000e+01    3.841420e+03
   -4.600000e+01    0.000000e+00    5.200000e+01    1.047095e+03
   -5.000000e+01    0.000000e+00    5.200000e+01    2.212517e+03
   -4.980973e+01    4.357787e+00    4.800000e+01    1.744364e+04
   -4.573892e+01    4.102273e+00    4.800000e+01    2.779455e+03
   -4.600000e+01    0.000000e+00    4.800000e+01    8.233512e+02
   -5.000000e+01    0.000000e+00    4.800000e+01    1.690020e+03
   -4.980973e+01    4.357787e+00    4.400000e+01    1.347596e+04
   -4.573892e+01    4.102273e+00    4.400000e+01    1.936098e+03
   -4.600000e+01    0.000000e+00    4.400000e+01    6.115298e+02
   -5.000000e+01    0.000000e+00    4.400000e+01    1.247600e+03
   -4.980973e+01    4.357787e+00    4.000000e+01    9.615692e+03
   -4.573892e+01    4.102273e+00    4.000000e+01    1.215505e+03
   -4.600000e+01    0.000000e+00    4.000000e+01    4.049628e+02
   -5.000000e+01    0.000000e+00    4.000000e+01    8.454106e+02
   -4.980973e+01    4.357787e+00    3.600000e+01    5.890010e+03
   -4.573892e+01    4.102273e+00    3.600000e+01    5.705182e+02
   -4.600000e+01    0.000000e+00    3.600000e+01    2.057579e+02
   -5.000000e+01    0.000000e+00    3.600000e+01    4.694205e+02
   -4.980973e+01    4.357787e+00    3.200000e+01    2.255171e+03
   -4.573892e+01    4.102273e+00    3.200000e+01   -2.810087e+01
   -4.600000e+01    0.000000e+00    3.200000e+01    1.588332e+01
   -5.000000e+01    0.000000e+00    3.200000e+01    1.096346e+02
   -4.980973e+01    4.357787e+00    2.800000e+01   -1.361793e+03
   -4.573892e+01    4.102273e+00    2.800000e+01   -6.014635e+02
   -4.600000e+01    0.000000e+00    2.800000e+01   -1.616240e+02
   -5.000000e+01    0.000000e+00    2.800000e+01   -2.414405e+02
   -4.980973e+01    4.357787e+00    2.400000e+01   -5.049756e+03
   -4.573892e+01    4.102273e+00    2.400000e+01   -1.165680e+03
   -4.600000e+01    0.000000e+00    2.400000e+01   -3.207786e+02
   -5.000000e+01    0.000000e+00    2.400000e+01   -5.889697e+02
   -4.980973e+01    4.357787e+00    2.000000e+01   -8.911561e+03
   -4.573892e+01    4.102273e+00    2.000000e+01   -1.733351e+03
   -4.600000e+01    0.000000e+00    2.000000e+01   -4.492913e+02
   -5.000000e+01    0.000000e+00    2.000000e+01   -9.337119e+02
   -4.980973e+01    4.357787e+00    1.600000e+01   -1.307480e+04
   -4.573892e+01    4.102273e+00    1.600000e+01   -2.314810e+03
   -4.600000e+01    0.000000e+00    1.600000e+01   -5.201972e+02
   -5.000000e+01    0.000000e+00    1.600000e+01   -1.267316e+03
   -4.980973e+01    4.357787e+00    1.200000e+01   -1.765735e+04
   -4.573892e+01    4.102273e+00    1.200000e+01   -2.911241e+03
   -4.600000e+01    0.000000e+00    1.200000e+01   -4.746124e+02
   -5.000000e+01    0.000000e+00    1.200000e+01   -1.553498e+03
   -4.980973e+01    4.357787e+00    8.000000e+00   -2.282951e+04
   -4.573892e+01    4.102273e+00    8.000000e+00   -3.595200e+03
   -4.600000e+01    0.000000e+00    8.000000e+00   -1.456529e+02
   -5.000000e+01    0.000000e+00    8.000000e+00   -1.671394e+03
   -4.980973e+01    4.357787e+00    4.000000e+00   -2.978233e+04
   -4.573892e+01    4.102273e+00    4.000000e+00   -4.133752e+03
   -4.600000e+01    0.000000e+00    4.000000e+00    9.470194e+02
   -5.000000e+01    0.000000e+00    4.000000e+00   -1.287475e+03
   -4.980973e+01    4.357787e+00    0.000000e+00   -2.978233e+04
   -4.573892e+01    4.102273e+00    0.000000e+00   -4.133752e+03
   -4.600000e+01    0.000000e+00    0.000000e+00    9.470194e+02
   -5.000000e+01    0.000000e+00    0.000000e+00   -1.287475e+03
    4.600000e+01    0.000000e+00    5.600000e+01    3.628660e+03
    4.571434e+01    4.109567e+00    5.600000e+01   -5.121078e+03
    4.980973e+01    4.357787e+00    5.600000e+01    1.340985e+04
    5.000000e+01    0.000000e+00    5.600000e+01    9.216118e+03
    4.600000e+01    0.000000e+00    5.200000e+01    3.408781e+03
    4.571434e+01    4.109567e+00    5.200000e+01   -3.721233e+03
    4.980973e+01    4.357787e+00    5.200000e+01    1.245613e+04
    5.000000e+01    0.000000e+00    5.200000e+01    8.318529e+03
    4.600000e+01    0.000000e+00    4.800000e+01    2.740130e+03
    4.571434e+01    4.109567e+00    4.800000e+01   -2.763092e+03
    4.980973e+01    4.357787e+00    4.800000e+01    1.068761e+04
    5.000000e+01    0.000000e+00    4.800000e+01    6.762870e+03
    4.600000e+01    0.000000e+00    4.400000e+01    2.068513e+03
    4.571434e+01    4.109567e+00    4.400000e+01   -1.976276e+03
    4.980973e+01    4.357787e+00    4.400000e+01    8.702416e+03
    5.000000e+01    0.000000e+00    4.400000e+01    5.159852e+03
    4.600000e+01    0.000000e+00    4.000000e+01    1.442134e+03
    4.571434e+01    4.109567e+00    4.000000e+01   -1.286625e+03
    4.980973e+01    4.357787e+00    4.000000e+01    6.685734e+03
    5.000000e+01    0.000000e+00    4.000000e+01    3.611738e+03
    4.600000e+01    0.000000e+00    3.600000e+01    8.546023e+02
    4.571434e+01    4.109567e+00    3.600000e+01   -6.556053e+02
    4.980973e+01    4.357787e+00    3.600000e+01    4.699742e+03
    5.000000e+01    0.000000e+00    3.600000e+01    2.122002e+03
    4.600000e+01    0.000000e+00    3.200000e+01    2.731171e+02
    4.571434e+01    4.109567e+00    3.200000e+01   -6.002953e+01
    4.980973e+01    4.357787e+00    3.200000e+01    2.759156e+03
    5.000000e+01    0.000000e+00    3.200000e+01    6.683785e+02
    4.600000e+01    0.000000e+00    2.800000e+01   -3.470776e+02
    4.571434e+01    4.109567e+00    2.800000e+01    5.167933e+02
    4.980973e+01    4.357787e+00    2.800000e+01    8.563561e+02
    5.000000e+01    0.000000e+00    2.800000e+01   -7.820362e+02
    4.600000e+01    0.000000e+00    2.400000e+01   -1.064105e+03
    4.571434e+01    4.109567e+00    2.400000e+01    1.086952e+03
    4.980973e+01    4.357787e+00    2.400000e+01   -1.028581e+03
    5.000000e+01    0.000000e+00    2.400000e+01   -2.269298e+03
    4.600000e+01    0.000000e+00    2.000000e+01   -1.958800e+03
    4.571434e+01    4.109567e+00    2.000000e+01    1.657546e+03
    4.980973e+01    4.357787e+00    2.000000e+01   -2.925627e+03
    5.000000e+01    0.000000e+00    2.000000e+01   -3.843322e+03
    4.600000e+01    0.000000e+00    1.600000e+01   -3.163514e+03
    4.571434e+01    4.109567e+00    1.600000e+01    2.226599e+03
    4.980973e+01    4.357787e+00    1.600000e+01   -4.896099e+03
    5.000000e+01    0.000000e+00    1.600000e+01   -5.571027e+03
    4.600000e+01    0.000000e+00    1.200000e+01   -4.885390e+03
    4.571434e+01    4.109567e+00    1.200000e+01    2.778866e+03
    4.980973e+01    4.357787e+00    1.200000e+01   -7.008220e+03
    5.000000e+01    0.000000e+00    1.200000e+01   -7.549660e+03
    4.600000e+01    0.000000e+00    8.000000e+00   -7.499793e+03
    4.571434e+01    4.109567e+00    8.000000e+00    3.298692e+03
    4.980973e+01    4.357787e+00    8.000000e+00   -9.498237e+03
    5.000000e+01    0.000000e+00    8.000000e+00   -9.868645e+03
    4.600000e+01    0.000000e+00    4.000000e+00   -1.213586e+04
    4.571434e+01    4.109567e+00    4.000000e+00    3.763675e+03
    4.980973e+01    4.357787e+00    4.000000e+00   -1.179524e+04
    5.000000e+01    0.000000e+00    4.000000e+00   -1.357478e+04
    4.600000e+01    0.000000e+00    0.000000e+00   -1.213586e+04
    4.571434e+01    4.109567e+00    0.000000e+00    3.763675e+03
    4.980973e+01    4.357787e+00    0.000000e+00   -1.179524e+04
    5.000000e+01    0.000000e+00    0.000000e+00   -1.357478e+04
   -4.165214e+01    4.015303e+00    5.600000e+01    5.446597e+03
   -4.200000e+01    0.000000e+00    5.600000e+01    3.805620e+01
   -4.165214e+01    4.015303e+00    5.200000e+01    3.841420e+03
   -4.200000e+01    0.000000e+00    5.200000e+01    2.161239e+02
   -4.165214e+01    4.015303e+00    4.800000e+01    2.779455e+03
   -4.200000e+01    0.000000e+00    4.800000e+01    2.775460e+02
   -4.165214e+01    4.015303e+00    4.400000e+01    1.936098e+03
   -4.200000e+01    0.000000e+00    4.400000e+01    2.472444e+02
   -4.165214e+01    4.015303e+00    4.000000e+01    1.215505e+03
   -4.200000e+01    0.000000e+00    4.000000e+01    1.663167e+02
   -4.165214e+01    4.015303e+00    3.600000e+01    5.705182e+02
   -4.200000e+01    0.000000e+00    3.600000e+01    6.308456e+01
   -4.165214e+01    4.015303e+00    3.200000e+01   -2.810087e+01
   -4.200000e+01    0.000000e+00    3.200000e+01   -4.470101e+01
   -4.165214e+01    4.015303e+00    2.800000e+01   -6.014635e+02
   -4.200000e+01    0.000000e+00    2.800000e+01   -1.407759e+02
   -4.165214e+01    4.015303e+00    2.400000e+01   -1.165680e+03
   -4.200000e+01    0.000000e+00    2.400000e+01   -2.055407e+02
   -4.165214e+01    4.015303e+00    2.000000e+01   -1.733351e+03
   -4.200000e+01    0.000000e+00    2.000000e+01   -2.098361e+02
   -4.165214e+01    4.015303e+00    1.600000e+01   -2.314810e+03
   -4.200000e+01    0.000000e+00    1.600000e+01   -1.040244e+02
   -4.165214e+01    4.015303e+00    1.200000e+01   -2.911241e+03
   -4.200000e+01    0.000000e+00    1.200000e+01    2.142109e+02
   -4.165214e+01    4.015303e+00    8.000000e+00   -3.595200e+03
   -4.200000e+01    0.000000e+00    8.000000e+00    9.877751e+02
   -4.165214e+01    4.015303e+00    4.000000e+00   -4.133752e+03
   -4.200000e+01    0.000000e+00    4.000000e+00    2.640704e+03
   -4.165214e+01    4.015303e+00    0.000000e+00   -4.133752e+03
   -4.200000e+01    0.000000e+00    0.000000e+00    2.640704e+03
    4.523563e+01    8.152204e+00    5.600000e+01   -7.679236e+03
    4.924039e+01    8.682409e+00    5.600000e+01    1.701820e+04
    4.523563e+01    8.152204e+00    5.200000e+01   -5.696428e+03