TITLE="test case governed by poisson equation"
VARIABLES="x""y""z""sigaz"
ZONE N=    2976,E=    1860,ET=BRICK,F=FEPOINT
    5.000000e+01    0.000000e+00    6.000000e+01   -3.999264e+04
    4.980973e+01    4.357787e+00    6.000000e+01   -6.256531e+04
    4.924039e+01    8.682409e+00    6.000000e+01   -7.102292e+04
    4.829629e+01    1.294095e+01    6.000000e+01   -7.097681e+04
    4.698463e+01    1.710101e+01    6.000000e+01   -6.322263e+04
    4.531539e+01    2.113091e+01    6.000000e+01   -5.088681e+04
    4.330127e+01    2.500000e+01    6.000000e+01   -3.672038e+04
    4.095760e+01    2.867882e+01    6.000000e+01   -2.231200e+04
    3.830222e+01    3.213938e+01    6.000000e+01   -8.887378e+03
    3.535534e+01    3.535534e+01    6.000000e+01    2.656480e+03
    3.213938e+01    3.830222e+01    6.000000e+01    1.175313e+04
    2.867882e+01    4.095760e+01    6.000000e+01    1.807152e+04
    2.500000e+01    4.330127e+01    6.000000e+01    2.149565e+04
    2.113091e+01    4.531539e+01    6.000000e+01    2.209405e+04
    1.710101e+01    4.698463e+01    6.000000e+01    2.002759e+04
    1.294095e+01    4.829629e+01    6.000000e+01    1.562154e+04
    8.682409e+00    4.924039e+01    6.000000e+01    9.320919e+03
    4.357787e+00    4.980973e+01    6.000000e+01    1.634190e+03
    0.000000e+00    5.000000e+01    6.000000e+01   -6.789096e+03
   -4.357787e+00    4.980973e+01    6.000000e+01   -1.521080e+04
   -8.682409e+00    4.924039e+01    6.000000e+01   -2.279284e+04
   -1.294095e+01    4.829629e+01    6.000000e+01   -2.858881e+04
   -1.710101e+01    4.698463e+01    6.000000e+01   -3.153638e+04
   -2.113091e+01    4.531539e+01    6.000000e+01   -3.047799e+04
   -2.500000e+01    4.330127e+01    6.000000e+01   -2.439837e+04
   -2.867882e+01    4.095760e+01    6.000000e+01   -1.242498e+04
   -3.213938e+01    3.830222e+01    6.000000e+01    6.145772e+03
   -3.535534e+01    3.535534e+01    6.000000e+01    3.177655e+04
   -3.830222e+01    3.213938e+01    6.000000e+01    6.406478e+04
   -4.095760e+01    2.867882e+01    6.000000e+01    1.018770e+05
   -4.330127e+01    2.500000e+01    6.000000e+01    1.413179e+05
   -4.531539e+01    2.113091e+01    6.000000e+01    1.766504e+05
   -4.698463e+01    1.710101e+01    6.000000e+01    1.859071e+05
   -4.829629e+01    1.294095e+01    6.000000e+01    1.455636e+05
   -4.924039e+01    8.682409e+00    6.000000e+01    8.849954e+04
   -4.980973e+01    4.357787e+00    6.000000e+01    8.849954e+04
   -5.000000e+01    0.000000e+00    6.000000e+01    1.363240e+03
   -4.600000e+01    0.000000e+00    6.000000e+01   -9.126091e+02
   -4.200000e+01    0.000000e+00    6.000000e+01   -2.804291e+03
   -3.800000e+01    0.000000e+00    6.000000e+01   -4.051441e+03
   -3.400000e+01    0.000000e+00    6.000000e+01   -8.190430e+03
   -3.000000e+01    0.000000e+00    6.000000e+01   -1.500197e+04
   -2.600000e+01    0.000000e+00    6.000000e+01   -2.588229e+04
   -2.200000e+01    0.000000e+00    6.000000e+01   -2.588229e+04
   -1.800000e+01    0.000000e+00    6.000000e+01    1.333659e+05
   -1.772654e+01    3.125667e+00    6.000000e+01    1.850842e+05
   -1.691447e+01    6.156363e+00    6.000000e+01    1.764704e+05
   -1.558846e+01    9.000000e+00    6.000000e+01    1.588930e+05
   -1.378880e+01    1.157018e+01    6.000000e+01    1.356009e+05
   -1.157018e+01    1.378880e+01    6.000000e+01    1.073094e+05
   -9.000000e+00    1.558846e+01    6.000000e+01    7.672045e+04
   -6.156363e+00    1.691447e+01    6.000000e+01    4.447733e+04
   -3.125667e+00    1.772654e+01    6.000000e+01    9.881462e+03
    0.000000e+00    1.800000e+01    6.000000e+01   -2.874476e+04
    3.125667e+00    1.772654e+01    6.000000e+01   -7.369910e+04
    6.156363e+00    1.691447e+01    6.000000e+01   -1.273604e+05
    9.000000e+00    1.558846e+01    6.000000e+01   -1.907427e+05
    1.157018e+01    1.378880e+01    6.000000e+01   -2.596871e+05
    1.378880e+01    1.157018e+01    6.000000e+01   -3.131066e+05
    1.558846e+01    9.000000e+00    6.000000e+01   -3.237184e+05
    1.691447e+01    6.156363e+00    6.000000e+01   -2.463198e+05
    1.772654e+01    3.125667e+00    6.000000e+01   -2.463198e+05
    1.800000e+01    0.000000e+00    6.000000e+01   -1.582827e+04
    2.200000e+01    0.000000e+00    6.000000e+01   -1.217959e+04
    2.600000e+01    0.000000e+00    6.000000e+01   -7.466720e+03
    3.000000e+01    0.000000e+00    6.000000e+01   -3.879766e+03
    3.400000e+01    0.000000e+00    6.000000e+01   -2.547716e+03
    3.800000e+01    0.000000e+00    6.000000e+01   -2.547716e+03
    4.200000e+01    0.000000e+00    6.000000e+01   -1.440307e+04
    4.600000e+01    0.000000e+00    6.000000e+01   -2.909808e+04
   -2.473863e+01    8.000000e+00    6.000000e+01    6.045426e+03
   -2.886174e+01    8.000000e+00    6.000000e+01    1.808430e+03
   -3.298485e+01    8.000000e+00    6.000000e+01   -5.428189e+03
   -3.710795e+01    8.000000e+00    6.000000e+01   -3.471300e+04
   -4.123106e+01    8.000000e+00    6.000000e+01   -5.697130e+04
   -4.038926e+01    1.151989e+01    6.000000e+01   -5.697130e+04
   -3.924756e+01    1.495423e+01    6.000000e+01    3.498433e+02
   -3.781444e+01    1.827754e+01    6.000000e+01    1.001919e+03
   -3.610053e+01    2.146513e+01    6.000000e+01    1.114198e+03
   -3.411856e+01    2.449334e+01    6.000000e+01    7.809897e+02
   -3.188326e+01    2.733967e+01    6.000000e+01    6.249447e+01
   -2.941121e+01    2.998300e+01    6.000000e+01   -9.775122e+02
   -2.672078e+01    3.240370e+01    6.000000e+01   -2.265955e+03
   -2.383193e+01    3.458380e+01    6.000000e+01   -3.721070e+03
   -2.076613e+01    3.650709e+01    6.000000e+01   -5.256815e+03
   -1.754613e+01    3.815931e+01    6.000000e+01   -6.786711e+03
   -1.419585e+01    3.952819e+01    6.000000e+01   -8.228580e+03
   -1.074016e+01    4.060356e+01    6.000000e+01   -9.507012e+03
   -7.204722e+00    4.137743e+01    6.000000e+01   -1.055709e+04
   -3.615785e+00    4.184407e+01    6.000000e+01   -1.132664e+04
    0.000000e+00    4.200000e+01    6.000000e+01   -1.177687e+04
    3.615785e+00    4.184407e+01    6.000000e+01   -1.188500e+04
    7.204722e+00    4.137743e+01    6.000000e+01   -1.164404e+04
    1.074016e+01    4.060356e+01    6.000000e+01   -1.106331e+04
    1.419585e+01    3.952819e+01    6.000000e+01   -1.016861e+04
    1.754613e+01    3.815931e+01    6.000000e+01   -9.000362e+03
    2.076613e+01    3.650709e+01    6.000000e+01   -7.613452e+03
    2.383193e+01    3.458380e+01    6.000000e+01   -6.074761e+03
    2.672078e+01    3.240370e+01    6.000000e+01   -4.460552e+03
    2.941121e+01    2.998300e+01    6.000000e+01   -2.854573e+03
    3.188326e+01    2.733967e+01    6.000000e+01   -1.343603e+03
    3.411856e+01    2.449334e+01    6.000000e+01   -1.464000e+01
    3.610053e+01    2.146513e+01    6.000000e+01    1.049436e+03
    3.781444e+01    1.827754e+01    6.000000e+01    1.773626e+03
    3.924756e+01    1.495423e+01    6.000000e+01    2.074532e+03
    4.038926e+01    1.151989e+01    6.000000e+01    1.820761e+03
    4.123106e+01    8.000000e+00    6.000000e+01    1.471537e+03
    3.710795e+01    8.000000e+00    6.000000e+01    3.622625e+05
    3.298485e+01    8.000000e+00    6.000000e+01    7.650243e+04
    2.886174e+01    8.000000e+00    6.000000e+01   -3.765691e+04
    2.473863e+01    8.000000e+00    6.000000e+01   -1.363283e+05
    2.291017e+01    1.229325e+01    6.000000e+01   -3.377859e+04
    2.034373e+01    1.619051e+01    6.000000e+01   -3.622370e+04
    1.712198e+01    1.956624e+01    6.000000e+01   -3.315103e+04
    1.334870e+01    2.231171e+01    6.000000e+01   -2.798200e+04
    9.145430e+00    2.433847e+01    6.000000e+01   -2.216881e+04
    4.647568e+00    2.558125e+01    6.000000e+01   -1.719790e+04
    0.000000e+00    2.600000e+01    6.000000e+01   -6.643132e+03
   -4.647568e+00    2.558125e+01    6.000000e+01   -8.271120e+03
   -9.145430e+00    2.433847e+01    6.000000e+01   -1.089147e+04
   -1.334870e+01    2.231171e+01    6.000000e+01   -1.387080e+04
   -1.712198e+01    1.956624e+01    6.000000e+01   -1.659435e+04
   -2.034373e+01    1.619051e+01    6.000000e+01   -1.753004e+04
   -2.291017e+01    1.229325e+01    6.000000e+01   -1.668428e+04
   -2.163875e+01    3.628618e+00    6.000000e+01    8.964301e+04
    2.161991e+01    3.629295e+00    6.000000e+01   -1.746133e+05
   -4.573892e+01    4.102273e+00    6.000000e+01   -7.272544e+01
    4.571434e+01    4.109567e+00    6.000000e+01    1.026141e+03
   -4.165214e+01    4.015303e+00    6.000000e+01   -7.272544e+01
    4.523563e+01    8.152204e+00    6.000000e+01    1.471537e+03
    4.437674e+01    1.211971e+01    6.000000e+01    1.820761e+03
    4.315033e+01    1.594729e+01    6.000000e+01    2.074532e+03
    4.160183e+01    1.963603e+01    6.000000e+01    1.773626e+03
    3.973977e+01    2.317461e+01    6.000000e+01    1.049436e+03
    3.757867e+01    2.653596e+01    6.000000e+01   -1.464000e+01
    3.513408e+01    2.969708e+01    6.000000e+01   -1.343603e+03
    3.242410e+01    3.263458e+01    6.000000e+01   -2.854573e+03
    2.946928e+01    3.532560e+01    6.000000e+01   -4.460552e+03
    2.629204e+01    3.775009e+01    6.000000e+01   -6.074761e+03
    2.291615e+01    3.988993e+01    6.000000e+01   -7.613452e+03
    1.936715e+01    4.172848e+01    6.000000e+01   -9.000362e+03
    1.567232e+01    4.325198e+01    6.000000e+01   -1.016861e+04
    1.185889e+01    4.444924e+01    6.000000e+01   -1.106331e+04
    7.955883e+00    4.531076e+01    6.000000e+01   -1.164404e+04
    3.993184e+00    4.583030e+01    6.000000e+01   -1.188500e+04
    0.000000e+00    4.600405e+01    6.000000e+01   -1.177687e+04
   -3.993184e+00    4.583030e+01    6.000000e+01   -1.132664e+04
   -7.955646e+00    4.531081e+01    6.000000e+01   -1.055709e+04
   -1.185862e+01    4.444932e+01    6.000000e+01   -9.507012e+03
   -1.567211e+01    4.325205e+01    6.000000e+01   -8.228580e+03
   -1.936793e+01    4.172808e+01    6.000000e+01   -6.786711e+03
   -2.291897e+01    3.988821e+01    6.000000e+01   -5.256815e+03
   -2.629731e+01    3.774624e+01    6.000000e+01   -3.721070e+03
   -2.947697e+01    3.531904e+01    6.000000e+01   -2.265955e+03
   -3.243381e+01    3.262479e+01    6.000000e+01   -9.775122e+02
   -3.514428e+01    2.968480e+01    6.000000e+01    6.249447e+01
   -3.759023e+01    2.651936e+01    6.000000e+01    7.809897e+02
   -3.975154e+01    2.315402e+01    6.000000e+01    1.114198e+03
   -4.161308e+01    1.961149e+01    6.000000e+01    1.001919e+03
   -4.315985e+01    1.592045e+01    6.000000e+01    3.498433e+02
   -4.438299e+01    1.209670e+01    6.000000e+01   -5.697130e+04
   -4.524409e+01    8.137423e+00    6.000000e+01   -5.697130e+04
   -2.076586e+01    7.239084e+00    6.000000e+01    8.964301e+04
   -1.923903e+01    1.070065e+01    6.000000e+01   -1.668428e+04
   -1.706956e+01    1.390049e+01    6.000000e+01   -1.753004e+04
   -1.435218e+01    1.669166e+01    6.000000e+01   -1.659435e+04
   -1.117956e+01    1.896378e+01    6.000000e+01   -1.387080e+04
   -7.653899e+00    2.064061e+01    6.000000e+01   -1.089147e+04
   -3.887942e+00    2.166817e+01    6.000000e+01   -8.271120e+03
    0.000000e+00    2.201434e+01    6.000000e+01   -6.643132e+03
    3.887962e+00    2.166817e+01    6.000000e+01   -1.719790e+04
    7.653766e+00    2.064067e+01    6.000000e+01   -2.216881e+04
    1.117939e+01    1.896389e+01    6.000000e+01   -2.798200e+04
    1.435153e+01    1.669225e+01    6.000000e+01   -3.315103e+04
    1.706858e+01    1.390179e+01    6.000000e+01   -3.622370e+04
    1.923739e+01    1.070385e+01    6.000000e+01   -3.377859e+04
    2.075951e+01    7.244071e+00    6.000000e+01   -1.746133e+05
   -3.761756e+01    4.010140e+00    6.000000e+01   -3.471300e+04
   -3.355935e+01    4.010137e+00    6.000000e+01   -5.428189e+03
   -2.953620e+01    4.010619e+00    6.000000e+01    1.808430e+03
   -2.554584e+01    3.954124e+00    6.000000e+01    6.045426e+03
    2.551887e+01    3.953839e+00    6.000000e+01   -1.363283e+05
    4.162606e+01    4.017016e+00    6.000000e+01    1.026141e+03
    3.756564e+01    4.010135e+00    6.000000e+01    3.622625e+05
    2.949025e+01    4.010464e+00    6.000000e+01   -3.765691e+04
    3.352269e+01    4.010140e+00    6.000000e+01    7.650243e+04
   -2.200000e+01    0.000000e+00    5.600000e+01   -1.432534e+04
   -2.163875e+01    3.628618e+00    5.600000e+01    3.124116e+04
   -1.772654e+01    3.125667e+00    5.600000e+01    5.832630e+04
   -1.800000e+01    0.000000e+00    5.600000e+01    2.256562e+04
   -2.200000e+01    0.000000e+00    5.200000e+01   -7.246796e+03
   -2.163875e+01    3.628618e+00    5.200000e+01    8.562392e+03
   -1.772654e+01    3.125667e+00    5.200000e+01    2.007411e+04
   -1.800000e+01    0.000000e+00    5.200000e+01    8.551486e+03
   -2.200000e+01    0.000000e+00    4.800000e+01   -3.735404e+03
   -2.163875e+01    3.628618e+00    4.800000e+01    2.011058e+03
   -1.772654e+01    3.125667e+00    4.800000e+01    8.312948e+03
   -1.800000e+01    0.000000e+00    4.800000e+01    3.178056e+03
   -2.200000e+01    0.000000e+00    4.400000e+01   -2.008278e+03
   -2.163875e+01    3.628618e+00    4.400000e+01    1.139078e+02
   -1.772654e+01    3.125667e+00    4.400000e+01    3.884433e+03
   -1.800000e+01    0.000000e+00    4.400000e+01    1.438218e+03
   -2.200000e+01    0.000000e+00    4.000000e+01   -1.072284e+03
   -2.163875e+01    3.628618e+00    4.000000e+01   -9.693259e+01
   -1.772654e+01    3.125667e+00    4.000000e+01    2.452129e+03
   -1.800000e+01    0.000000e+00    4.000000e+01    9.027275e+02
   -2.200000e+01    0.000000e+00    3.600000e+01   -5.083005e+02
   -2.163875e+01    3.628618e+00    3.600000e+01    4.136289e+02
   -1.772654e+01    3.125667e+00    3.600000e+01    2.340998e+03
   -1.800000e+01    0.000000e+00    3.600000e+01    9.471472e+02
   -2.200000e+01    0.000000e+00    3.200000e+01   -1.115098e+02
   -2.163875e+01    3.628618e+00    3.200000e+01    1.325248e+03
   -1.772654e+01    3.125667e+00    3.200000e+01    2.883871e+03
   -1.800000e+01    0.000000e+00    3.200000e+01    1.258625e+03
   -2.200000e+01    0.000000e+00    2.800000e+01    2.149323e+02
   -2.163875e+01    3.628618e+00    2.800000e+01    2.522250e+03
   -1.772654e+01    3.125667e+00    2.800000e+01    3.700847e+03
   -1.800000e+01    0.000000e+00    2.800000e+01    1.642936e+03
   -2.200000e+01    0.000000e+00    2.400000e+01    5.211050e+02
   -2.163875e+01    3.628618e+00    2.400000e+01    3.969443e+03
   -1.772654e+01    3.125667e+00    2.400000e+01    4.471182e+03
   -1.800000e+01    0.000000e+00    2.400000e+01    1.900873e+03
   -2.200000e+01    0.000000e+00    2.000000e+01    8.555759e+02
   -2.163875e+01    3.628618e+00    2.000000e+01    5.660243e+03
   -1.772654e+01    3.125667e+00    2.000000e+01    4.817484e+03
   -1.800000e+01    0.000000e+00    2.000000e+01    1.808870e+03
   -2.200000e+01    0.000000e+00    1.600000e+01    1.328145e+03
   -2.163875e+01    3.628618e+00    1.600000e+01    7.636920e+03
   -1.772654e+01    3.125667e+00    1.600000e+01    4.321004e+03
   -1.800000e+01    0.000000e+00    1.600000e+01    9.862657e+02
   -2.200000e+01    0.000000e+00    1.200000e+01    2.315877e+03
   -2.163875e+01    3.628618e+00    1.200000e+01    9.833522e+03
   -1.772654e+01    3.125667e+00    1.200000e+01    2.231013e+03
   -1.800000e+01    0.000000e+00    1.200000e+01   -3.923537e+02
   -2.200000e+01    0.000000e+00    8.000000e+00    4.069324e+03
   -2.163875e+01    3.628618e+00    8.000000e+00    1.329781e+04
   -1.772654e+01    3.125667e+00    8.000000e+00   -2.439183e+03
   -1.800000e+01    0.000000e+00    8.000000e+00   -5.701485e+03
   -2.200000e+01    0.000000e+00    4.000000e+00    8.453327e+03
   -2.163875e+01    3.628618e+00    4.000000e+00    2.510814e+04
   -1.772654e+01    3.125667e+00    4.000000e+00    4.397178e+03
   -1.800000e+01    0.000000e+00    4.000000e+00    4.061566e+03
   -2.200000e+01    0.000000e+00    0.000000e+00    8.453327e+03
   -2.163875e+01    3.628618e+00    0.000000e+00    2.510814e+04
   -1.772654e+01    3.125667e+00    0.000000e+00    4.397178e+03
   -1.800000e+01    0.000000e+00    0.000000e+00    4.061566e+03
    1.772654e+01    3.125667e+00    5.600000e+01   -5.851903e+04
    2.161991e+01    3.629295e+00    5.600000e+01   -5.183217e+04
    2.200000e+01    0.000000e+00    5.600000e+01   -9.137360e+03
    1.800000e+01    0.000000e+00    5.600000e+01   -9.058126e+03
    1.772654e+01    3.125667e+00    5.200000e+01   -2.325023e+04
    2.161991e+01    3.629295e+00    5.200000e+01   -2.001915e+04
    2.200000e+01    0.000000e+00    5.200000e+01   -5.243159e+03
    1.800000e+01    0.000000e+00    5.200000e+01   -4.569695e+03
    1.772654e+01    3.125667e+00    4.800000e+01   -1.028072e+04
    2.161991e+01    3.629295e+00    4.800000e+01   -8.378424e+03
    2.200000e+01    0.000000e+00    4.800000e+01   -2.932306e+03
    1.800000e+01    0.000000e+00    4.800000e+01   -2.422579e+03
    1.772654e+01    3.125667e+00    4.400000e+01   -5.428348e+03
    2.161991e+01    3.629295e+00    4.400000e+01   -3.947747e+03
    2.200000e+01    0.000000e+00    4.400000e+01   -1.650748e+03
    1.800000e+01    0.000000e+00    4.400000e+01   -1.371434e+03
    1.772654e+01    3.125667e+00    4.000000e+01   -3.461302e+03
    2.161991e+01    3.629295e+00    4.000000e+01   -2.187108e+03
    2.200000e+01    0.000000e+00    4.000000e+01   -9.024006e+02
    1.800000e+01    0.000000e+00    4.000000e+01   -7.599312e+02
    1.772654e+01    3.125667e+00    3.600000e+01   -2.796051e+03
    2.161991e+01    3.629295e+00    3.600000e+01   -1.778670e+03
    2.200000e+01    0.000000e+00    3.600000e+01   -4.195488e+02
    1.800000e+01    0.000000e+00    3.600000e+01   -3.408767e+02
    1.772654e+01    3.125667e+00    3.200000e+01   -2.730109e+03
    2.161991e+01    3.629295e+00    3.200000e+01   -2.123822e+03
    2.200000e+01    0.000000e+00    3.200000e+01   -6.100307e+01
    1.800000e+01    0.000000e+00    3.200000e+01   -3.013652e+00
    1.772654e+01    3.125667e+00    2.800000e+01   -2.857358e+03
    2.161991e+01    3.629295e+00    2.800000e+01   -2.889090e+03
    2.200000e+01    0.000000e+00    2.800000e+01    2.561714e+02
    1.800000e+01    0.000000e+00    2.800000e+01    2.936144e+02
    1.772654e+01    3.125667e+00    2.400000e+01   -2.788587e+03
    2.161991e+01    3.629295e+00    2.400000e+01   -3.842422e+03
    2.200000e+01    0.000000e+00    2.400000e+01    5.888384e+02
    1.800000e+01    0.000000e+00    2.400000e+01    5.586182e+02
    1.772654e+01    3.125667e+00    2.000000e+01   -2.054946e+03
    2.161991e+01    3.629295e+00    2.000000e+01   -4.818445e+03
    2.200000e+01    0.000000e+00    2.000000e+01    9.932062e+02
    1.800000e+01    0.000000e+00    2.000000e+01    8.069419e+02
    1.772654e+01    3.125667e+00    1.600000e+01    1.384547e+02
    2.161991e+01    3.629295e+00    1.600000e+01   -5.775713e+03
    2.200000e+01    0.000000e+00    1.600000e+01    1.558556e+03
    1.800000e+01    0.000000e+00    1.600000e+01    1.101672e+03
    1.772654e+01    3.125667e+00    1.200000e+01    4.206868e+03
    2.161991e+01    3.629295e+00    1.200000e+01   -7.234770e+03
    2.200000e+01    0.000000e+00    1.200000e+01    2.534294e+03
    1.800000e+01    0.000000e+00    1.200000e+01    1.806395e+03
    1.772654e+01    3.125667e+00    8.000000e+00    1.574880e+04
    2.161991e+01    3.629295e+00    8.000000e+00   -1.085406e+04
    2.200000e+01    0.000000e+00    8.000000e+00    3.817968e+03
    1.800000e+01    0.000000e+00    8.000000e+00    3.142402e+03
    1.772654e+01    3.125667e+00    4.000000e+00   -1.314845e+03
    2.161991e+01    3.629295e+00    4.000000e+00   -5.038564e+04
    2.200000e+01    0.000000e+00    4.000000e+00    5.795222e+03
    1.800000e+01    0.000000e+00    4.000000e+00    8.625181e+03
    1.772654e+01    3.125667e+00    0.000000e+00   -1.314845e+03
    2.161991e+01    3.629295e+00    0.000000e+00   -5.038564e+04
    2.200000e+01    0.000000e+00    0.000000e+00    5.795222e+03
    1.800000e+01    0.000000e+00    0.000000e+00    8.625181e+03
   -4.980973e+01    4.357787e+00    5.600000e+01    5.613952e+04
   -4.573892e+01    4.102273e+00    5.600000e+01    1.935659e+03
   -4.600000e+01    0.000000e+00    5.600000e+01    1.061902e+03
   -5.000000e+01    0.000000e+00    5.600000e+01    3.084616e+03
   -4.980973e+01    4.357787e+00    5.200000e+01    4.254663e+04
   -4.573892e+01    4.102273e+00    5.200000e+01    2.164927e+03
   -4.600000e+01    0.000000e+00    5.200000e+01    1.093122e+03
   -5.000000e+01    0.000000e+00    5.200000e+01    3.080178e+03
   -4.980973e+01    4.357787e+00    4.800000e+01    3.269241e+04
   -4.573892e+01    4.102273e+00    4.800000e+01    1.968321e+03
   -4.600000e+01    0.000000e+00    4.800000e+01    8.889930e+02
   -5.000000e+01    0.000000e+00    4.800000e+01    2.555999e+03
   -4.980973e+01    4.357787e+00    4.400000e+01    2.446052e+04
   -4.573892e+01    4.102273e+00    4.400000e+01    1.629106e+03
   -4.600000e+01    0.000000e+00    4.400000e+01    6.759872e+02
   -5.000000e+01    0.000000e+00    4.400000e+01    1.940197e+03
   -4.980973e+01    4.357787e+00    4.000000e+01    1.694272e+04
   -4.573892e+01    4.102273e+00    4.000000e+01    1.264613e+03
   -4.600000e+01    0.000000e+00    4.000000e+01    4.728136e+02
   -5.000000e+01    0.000000e+00    4.000000e+01    1.314782e+03
   -4.980973e+01    4.357787e+00    3.600000e+01    9.846322e+03
   -4.573892e+01    4.102273e+00    3.600000e+01    9.027545e+02
   -4.600000e+01    0.000000e+00    3.600000e+01    2.789314e+02
   -5.000000e+01    0.000000e+00    3.600000e+01    6.961300e+02
   -4.980973e+01    4.357787e+00    3.200000e+01    3.041878e+03
   -4.573892e+01    4.102273e+00    3.200000e+01    5.384074e+02
   -4.600000e+01    0.000000e+00    3.200000e+01    8.400627e+01
   -5.000000e+01    0.000000e+00    3.200000e+01    8.158262e+01
   -4.980973e+01    4.357787e+00    2.800000e+01   -3.531929e+03
   -4.573892e+01    4.102273e+00    2.800000e+01    1.541681e+02
   -4.600000e+01    0.000000e+00    2.800000e+01   -1.265823e+02
   -5.000000e+01    0.000000e+00    2.800000e+01   -5.385694e+02
   -4.980973e+01    4.357787e+00    2.400000e+01   -9.894643e+03
   -4.573892e+01    4.102273e+00    2.400000e+01   -2.752489e+02
   -4.600000e+01    0.000000e+00    2.400000e+01   -3.723015e+02
   -5.000000e+01    0.000000e+00    2.400000e+01   -1.177170e+03
   -4.980973e+01    4.357787e+00    2.000000e+01   -1.602014e+04
   -4.573892e+01    4.102273e+00    2.000000e+01   -7.822879e+02
   -4.600000e+01    0.000000e+00    2.000000e+01   -6.807105e+02
   -5.000000e+01    0.000000e+00    2.000000e+01   -1.849103e+03
   -4.980973e+01    4.357787e+00    1.600000e+01   -2.182997e+04
   -4.573892e+01    4.102273e+00    1.600000e+01   -1.403637e+03
   -4.600000e+01    0.000000e+00    1.600000e+01   -1.095607e+03
   -5.000000e+01    0.000000e+00    1.600000e+01   -2.568410e+03
   -4.980973e+01    4.357787e+00    1.200000e+01   -2.719235e+04
   -4.573892e+01    4.102273e+00    1.200000e+01   -2.171824e+03
   -4.600000e+01    0.000000e+00    1.200000e+01   -1.701466e+03
   -5.000000e+01    0.000000e+00    1.200000e+01   -3.352165e+03
   -4.980973e+01    4.357787e+00    8.000000e+00   -3.149470e+04
   -4.573892e+01    4.102273e+00    8.000000e+00   -3.093753e+03
   -4.600000e+01    0.000000e+00    8.000000e+00   -2.631600e+03
   -5.000000e+01    0.000000e+00    8.000000e+00   -4.045792e+03
   -4.980973e+01    4.357787e+00    4.000000e+00   -3.075660e+04
   -4.573892e+01    4.102273e+00    4.000000e+00   -4.921718e+03
   -4.600000e+01    0.000000e+00    4.000000e+00   -3.819283e+03
   -5.000000e+01    0.000000e+00    4.000000e+00   -4.868847e+03
   -4.980973e+01    4.357787e+00    0.000000e+00   -3.075660e+04
   -4.573892e+01    4.102273e+00    0.000000e+00   -4.921718e+03
   -4.600000e+01    0.000000e+00    0.000000e+00   -3.819283e+03
   -5.000000e+01    0.000000e+00    0.000000e+00   -4.868847e+03
    4.600000e+01    0.000000e+00    5.600000e+01   -1.426802e+04
    4.571434e+01    4.109567e+00    5.600000e+01    2.203116e+03
    4.980973e+01    4.357787e+00    5.600000e+01   -4.245743e+04
    5.000000e+01    0.000000e+00    5.600000e+01   -2.218323e+04
    4.600000e+01    0.000000e+00    5.200000e+01   -9.727419e+03
    4.571434e+01    4.109567e+00    5.200000e+01    2.538587e+03
    4.980973e+01    4.357787e+00    5.200000e+01   -3.041226e+04
    5.000000e+01    0.000000e+00    5.200000e+01   -1.654435e+04
    4.600000e+01    0.000000e+00    4.800000e+01   -6.998208e+03
    4.571434e+01    4.109567e+00    4.800000e+01    2.298473e+03
    4.980973e+01    4.357787e+00    4.800000e+01   -2.299621e+04
    5.000000e+01    0.000000e+00    4.800000e+01   -1.259886e+04
    4.600000e+01    0.000000e+00    4.400000e+01   -4.923962e+03
    4.571434e+01    4.109567e+00    4.400000e+01    1.883273e+03
    4.980973e+01    4.357787e+00    4.400000e+01   -1.719335e+04
    5.000000e+01    0.000000e+00    4.400000e+01   -9.400824e+03
    4.600000e+01    0.000000e+00    4.000000e+01   -3.155482e+03
    4.571434e+01    4.109567e+00    4.000000e+01    1.408572e+03
    4.980973e+01    4.357787e+00    4.000000e+01   -1.212738e+04
    5.000000e+01    0.000000e+00    4.000000e+01   -6.504311e+03
    4.600000e+01    0.000000e+00    3.600000e+01   -1.562333e+03
    4.571434e+01    4.109567e+00    3.600000e+01    9.163918e+02
    4.980973e+01    4.357787e+00    3.600000e+01   -7.456652e+03
    5.000000e+01    0.000000e+00    3.600000e+01   -3.786459e+03
    4.600000e+01    0.000000e+00    3.200000e+01   -7.496757e+01
    4.571434e+01    4.109567e+00    3.200000e+01    4.165628e+02
    4.980973e+01    4.357787e+00    3.200000e+01   -3.056357e+03
    5.000000e+01    0.000000e+00    3.200000e+01   -1.188994e+03
    4.600000e+01    0.000000e+00    2.800000e+01    1.351137e+03
    4.571434e+01    4.109567e+00    2.800000e+01   -9.456308e+01
    4.980973e+01    4.357787e+00    2.800000e+01    1.119002e+03
    5.000000e+01    0.000000e+00    2.800000e+01    1.316651e+03
    4.600000e+01    0.000000e+00    2.400000e+01    2.750021e+03
    4.571434e+01    4.109567e+00    2.400000e+01   -6.267232e+02
    4.980973e+01    4.357787e+00    2.400000e+01    5.076185e+03
    5.000000e+01    0.000000e+00    2.400000e+01    3.741078e+03
    4.600000e+01    0.000000e+00    2.000000e+01    4.158813e+03
    4.571434e+01    4.109567e+00    2.000000e+01   -1.191111e+03
    4.980973e+01    4.357787e+00    2.000000e+01    8.805686e+03
    5.000000e+01    0.000000e+00    2.000000e+01    6.072528e+03
    4.600000e+01    0.000000e+00    1.600000e+01    5.638853e+03
    4.571434e+01    4.109567e+00    1.600000e+01   -1.800340e+03
    4.980973e+01    4.357787e+00    1.600000e+01    1.231023e+04
    5.000000e+01    0.000000e+00    1.600000e+01    8.270625e+03
    4.600000e+01    0.000000e+00    1.200000e+01    7.331794e+03
    4.571434e+01    4.109567e+00    1.200000e+01   -2.446867e+03
    4.980973e+01    4.357787e+00    1.200000e+01    1.574159e+04
    5.000000e+01    0.000000e+00    1.200000e+01    1.024697e+04
    4.600000e+01    0.000000e+00    8.000000e+00    9.307323e+03
    4.571434e+01    4.109567e+00    8.000000e+00   -3.130314e+03
    4.980973e+01    4.357787e+00    8.000000e+00    1.926931e+04
    5.000000e+01    0.000000e+00    8.000000e+00    1.181273e+04
    4.600000e+01    0.000000e+00    4.000000e+00    1.309158e+04
    4.571434e+01    4.109567e+00    4.000000e+00   -4.005526e+03
    4.980973e+01    4.357787e+00    4.000000e+00    1.902129e+04
    5.000000e+01    0.000000e+00    4.000000e+00    1.301093e+04
    4.600000e+01    0.000000e+00    0.000000e+00    1.309158e+04
    4.571434e+01    4.109567e+00    0.000000e+00   -4.005526e+03
    4.980973e+01    4.357787e+00    0.000000e+00    1.902129e+04
    5.000000e+01    0.000000e+00    0.000000e+00    1.301093e+04
   -4.165214e+01    4.015303e+00    5.600000e+01    1.935659e+03
   -4.200000e+01    0.000000e+00    5.600000e+01   -9.570019e+02
   -4.165214e+01    4.015303e+00    5.200000e+01    2.164927e+03
   -4.200000e+01    0.000000e+00    5.200000e+01   -4.805242e+02
   -4.165214e+01    4.015303e+00    4.800000e+01    1.968321e+03
   -4.200000e+01    0.000000e+00    4.800000e+01   -2.677952e+02
   -4.165214e+01    4.015303e+00    4.400000e+01    1.629106e+03
   -4.200000e+01    0.000000e+00    4.400000e+01   -1.273884e+02
   -4.165214e+01    4.015303e+00    4.000000e+01    1.264613e+03
   -4.200000e+01    0.000000e+00    4.000000e+01   -2.542141e+01
   -4.165214e+01    4.015303e+00    3.600000e+01    9.027545e+02
   -4.200000e+01    0.000000e+00    3.600000e+01    5.210482e+01
   -4.165214e+01    4.015303e+00    3.200000e+01    5.384074e+02
   -4.200000e+01    0.000000e+00    3.200000e+01    1.078791e+02
   -4.165214e+01    4.015303e+00    2.800000e+01    1.541681e+02
   -4.200000e+01    0.000000e+00    2.800000e+01    1.388556e+02
   -4.165214e+01    4.015303e+00    2.400000e+01   -2.752489e+02
   -4.200000e+01    0.000000e+00    2.400000e+01    1.347230e+02
   -4.165214e+01    4.015303e+00    2.000000e+01   -7.822879e+02
   -4.200000e+01    0.000000e+00    2.000000e+01    7.288747e+01
   -4.165214e+01    4.015303e+00    1.600000e+01   -1.403637e+03
   -4.200000e+01    0.000000e+00    1.600000e+01   -8.829521e+01
   -4.165214e+01    4.015303e+00    1.200000e+01   -2.171824e+03
   -4.200000e+01    0.000000e+00    1.200000e+01   -4.558299e+02
   -4.165214e+01    4.015303e+00    8.000000e+00   -3.093753e+03
   -4.200000e+01    0.000000e+00    8.000000e+00   -1.263703e+03
   -4.165214e+01    4.015303e+00    4.000000e+00   -4.921718e+03
   -4.200000e+01    0.000000e+00    4.000000e+00   -2.242473e+03
   -4.165214e+01    4.015303e+00    0.000000e+00   -4.921718e+03
   -4.200000e+01    0.000000e+00    0.000000e+00   -2.242473e+03
    4.523563e+01    8.152204e+00    5.600000e+01    2.271059e+03
    4.924039e+01    8.682409e+00    5.600000e+01   -5.215790e+04
    4.523563e+01    8.152204e+00    5.200000e+01    2.730776e+03