TITLE="test case governed by poisson equation"
VARIABLES="x""y""z""sigay"
ZONE N=    2976,E=    1860,ET=BRICK,F=FEPOINT
    5.000000e+01    0.000000e+00    6.000000e+01   -8.155435e+04
    4.980973e+01    4.357787e+00    6.000000e+01   -1.323688e+05
    4.924039e+01    8.682409e+00    6.000000e+01   -1.516233e+05
    4.829629e+01    1.294095e+01    6.000000e+01   -1.488554e+05
    4.698463e+01    1.710101e+01    6.000000e+01   -1.278301e+05
    4.531539e+01    2.113091e+01    6.000000e+01   -9.839257e+04
    4.330127e+01    2.500000e+01    6.000000e+01   -6.837239e+04
    4.095760e+01    2.867882e+01    6.000000e+01   -4.211616e+04
    3.830222e+01    3.213938e+01    6.000000e+01   -2.212286e+04
    3.535534e+01    3.535534e+01    6.000000e+01   -9.185739e+03
    3.213938e+01    3.830222e+01    6.000000e+01   -2.674072e+03
    2.867882e+01    4.095760e+01    6.000000e+01   -1.056905e+03
    2.500000e+01    4.330127e+01    6.000000e+01   -2.369685e+03
    2.113091e+01    4.531539e+01    6.000000e+01   -4.643701e+03
    1.710101e+01    4.698463e+01    6.000000e+01   -6.289350e+03
    1.294095e+01    4.829629e+01    6.000000e+01   -6.309175e+03
    8.682409e+00    4.924039e+01    6.000000e+01   -4.406395e+03
    4.357787e+00    4.980973e+01    6.000000e+01   -9.997496e+02
    0.000000e+00    5.000000e+01    6.000000e+01    2.994623e+03
   -4.357787e+00    4.980973e+01    6.000000e+01    6.463550e+03
   -8.682409e+00    4.924039e+01    6.000000e+01    8.328072e+03
   -1.294095e+01    4.829629e+01    6.000000e+01    8.107763e+03
   -1.710101e+01    4.698463e+01    6.000000e+01    6.215881e+03
   -2.113091e+01    4.531539e+01    6.000000e+01    4.286931e+03
   -2.500000e+01    4.330127e+01    6.000000e+01    5.367150e+03
   -2.867882e+01    4.095760e+01    6.000000e+01    1.360377e+04
   -3.213938e+01    3.830222e+01    6.000000e+01    3.376053e+04
   -3.535534e+01    3.535534e+01    6.000000e+01    7.073127e+04
   -3.830222e+01    3.213938e+01    6.000000e+01    1.274725e+05
   -4.095760e+01    2.867882e+01    6.000000e+01    2.046809e+05
   -4.330127e+01    2.500000e+01    6.000000e+01    2.954241e+05
   -4.531539e+01    2.113091e+01    6.000000e+01    3.862183e+05
   -4.698463e+01    1.710101e+01    6.000000e+01    4.228751e+05
   -4.829629e+01    1.294095e+01    6.000000e+01    3.422952e+05
   -4.924039e+01    8.682409e+00    6.000000e+01    2.171634e+05
   -4.980973e+01    4.357787e+00    6.000000e+01    2.171634e+05
   -5.000000e+01    0.000000e+00    6.000000e+01    1.177902e+04
   -4.600000e+01    0.000000e+00    6.000000e+01    4.485628e+03
   -4.200000e+01    0.000000e+00    6.000000e+01   -1.980332e+03
   -3.800000e+01    0.000000e+00    6.000000e+01   -5.830519e+03
   -3.400000e+01    0.000000e+00    6.000000e+01   -1.270972e+04
   -3.000000e+01    0.000000e+00    6.000000e+01   -2.444318e+04
   -2.600000e+01    0.000000e+00    6.000000e+01   -3.752504e+04
   -2.200000e+01    0.000000e+00    6.000000e+01   -3.752504e+04
   -1.800000e+01    0.000000e+00    6.000000e+01    2.803919e+05
   -1.772654e+01    3.125667e+00    6.000000e+01    3.648113e+05
   -1.691447e+01    6.156363e+00    6.000000e+01    3.059713e+05
   -1.558846e+01    9.000000e+00    6.000000e+01    2.280965e+05
   -1.378880e+01    1.157018e+01    6.000000e+01    1.557287e+05
   -1.157018e+01    1.378880e+01    6.000000e+01    9.780719e+04
   -9.000000e+00    1.558846e+01    6.000000e+01    5.721141e+04
   -6.156363e+00    1.691447e+01    6.000000e+01    2.828063e+04
   -3.125667e+00    1.772654e+01    6.000000e+01    3.962022e+03
    0.000000e+00    1.800000e+01    6.000000e+01   -2.162799e+04
    3.125667e+00    1.772654e+01    6.000000e+01   -5.546714e+04
    6.156363e+00    1.691447e+01    6.000000e+01   -1.099420e+05
    9.000000e+00    1.558846e+01    6.000000e+01   -2.038712e+05
    1.157018e+01    1.378880e+01    6.000000e+01   -3.513730e+05
    1.378880e+01    1.157018e+01    6.000000e+01   -5.252562e+05
    1.558846e+01    9.000000e+00    6.000000e+01   -6.452312e+05
    1.691447e+01    6.156363e+00    6.000000e+01   -5.565642e+05
    1.772654e+01    3.125667e+00    6.000000e+01   -5.565642e+05
    1.800000e+01    0.000000e+00    6.000000e+01   -2.943388e+04
    2.200000e+01    0.000000e+00    6.000000e+01   -2.397596e+04
    2.600000e+01    0.000000e+00    6.000000e+01   -1.403698e+04
    3.000000e+01    0.000000e+00    6.000000e+01   -6.779461e+03
    3.400000e+01    0.000000e+00    6.000000e+01   -3.069231e+03
    3.800000e+01    0.000000e+00    6.000000e+01   -3.069231e+03
    4.200000e+01    0.000000e+00    6.000000e+01   -3.227261e+04
    4.600000e+01    0.000000e+00    6.000000e+01   -6.147461e+04
   -2.473863e+01    8.000000e+00    6.000000e+01    9.405020e+03
   -2.886174e+01    8.000000e+00    6.000000e+01    2.044767e+03
   -3.298485e+01    8.000000e+00    6.000000e+01   -1.269036e+04
   -3.710795e+01    8.000000e+00    6.000000e+01   -7.343010e+04
   -4.123106e+01    8.000000e+00    6.000000e+01   -1.208571e+05
   -4.038926e+01    1.151989e+01    6.000000e+01   -1.208571e+05
   -3.924756e+01    1.495423e+01    6.000000e+01    3.664873e+03
   -3.781444e+01    1.827754e+01    6.000000e+01    2.837344e+03
   -3.610053e+01    2.146513e+01    6.000000e+01    2.284778e+03
   -3.411856e+01    2.449334e+01    6.000000e+01    1.873466e+03
   -3.188326e+01    2.733967e+01    6.000000e+01    1.282183e+03
   -2.941121e+01    2.998300e+01    6.000000e+01    1.932465e+02
   -2.672078e+01    3.240370e+01    6.000000e+01   -1.616882e+03
   -2.383193e+01    3.458380e+01    6.000000e+01   -4.235321e+03
   -2.076613e+01    3.650709e+01    6.000000e+01   -7.601962e+03
   -1.754613e+01    3.815931e+01    6.000000e+01   -1.151923e+04
   -1.419585e+01    3.952819e+01    6.000000e+01   -1.568162e+04
   -1.074016e+01    4.060356e+01    6.000000e+01   -1.971930e+04
   -7.204722e+00    4.137743e+01    6.000000e+01   -2.324954e+04
   -3.615785e+00    4.184407e+01    6.000000e+01   -2.592474e+04
    0.000000e+00    4.200000e+01    6.000000e+01   -2.747682e+04
    3.615785e+00    4.184407e+01    6.000000e+01   -2.775173e+04
    7.204722e+00    4.137743e+01    6.000000e+01   -2.672727e+04
    1.074016e+01    4.060356e+01    6.000000e+01   -2.451559e+04
    1.419585e+01    3.952819e+01    6.000000e+01   -2.134834e+04
    1.754613e+01    3.815931e+01    6.000000e+01   -1.754656e+04
    2.076613e+01    3.650709e+01    6.000000e+01   -1.347771e+04
    2.383193e+01    3.458380e+01    6.000000e+01   -9.506968e+03
    2.672078e+01    3.240370e+01    6.000000e+01   -5.947747e+03
    2.941121e+01    2.998300e+01    6.000000e+01   -3.016655e+03
    3.188326e+01    2.733967e+01    6.000000e+01   -8.012735e+02
    3.411856e+01    2.449334e+01    6.000000e+01    7.525560e+02
    3.610053e+01    2.146513e+01    6.000000e+01    1.833528e+03
    3.781444e+01    1.827754e+01    6.000000e+01    2.730458e+03
    3.924756e+01    1.495423e+01    6.000000e+01    3.742078e+03
    4.038926e+01    1.151989e+01    6.000000e+01    4.942111e+03
    4.123106e+01    8.000000e+00    6.000000e+01    7.338238e+03
    3.710795e+01    8.000000e+00    6.000000e+01    8.508928e+05
    3.298485e+01    8.000000e+00    6.000000e+01    1.787945e+05
    2.886174e+01    8.000000e+00    6.000000e+01   -9.014153e+04
    2.473863e+01    8.000000e+00    6.000000e+01   -3.217138e+05
    2.291017e+01    1.229325e+01    6.000000e+01   -1.654638e+04
    2.034373e+01    1.619051e+01    6.000000e+01   -1.207906e+04
    1.712198e+01    1.956624e+01    6.000000e+01   -1.534748e+04
    1.334870e+01    2.231171e+01    6.000000e+01   -2.236702e+04
    9.145430e+00    2.433847e+01    6.000000e+01   -2.777296e+04
    4.647568e+00    2.558125e+01    6.000000e+01   -3.012752e+04
    0.000000e+00    2.600000e+01    6.000000e+01   -1.176514e+04
   -4.647568e+00    2.558125e+01    6.000000e+01   -1.160711e+04
   -9.145430e+00    2.433847e+01    6.000000e+01   -1.034721e+04
   -1.334870e+01    2.231171e+01    6.000000e+01   -7.140910e+03
   -1.712198e+01    1.956624e+01    6.000000e+01   -3.136822e+03
   -2.034373e+01    1.619051e+01    6.000000e+01   -2.609243e+03
   -2.291017e+01    1.229325e+01    6.000000e+01   -1.403782e+04
   -2.163875e+01    3.628618e+00    6.000000e+01    1.765906e+05
    2.161991e+01    3.629295e+00    6.000000e+01   -4.005540e+05
   -4.573892e+01    4.102273e+00    6.000000e+01    5.417881e+03
    4.571434e+01    4.109567e+00    6.000000e+01    9.985417e+03
   -4.165214e+01    4.015303e+00    6.000000e+01    5.417881e+03
    4.523563e+01    8.152204e+00    6.000000e+01    7.338238e+03
    4.437674e+01    1.211971e+01    6.000000e+01    4.942111e+03
    4.315033e+01    1.594729e+01    6.000000e+01    3.742078e+03
    4.160183e+01    1.963603e+01    6.000000e+01    2.730458e+03
    3.973977e+01    2.317461e+01    6.000000e+01    1.833528e+03
    3.757867e+01    2.653596e+01    6.000000e+01    7.525560e+02
    3.513408e+01    2.969708e+01    6.000000e+01   -8.012735e+02
    3.242410e+01    3.263458e+01    6.000000e+01   -3.016655e+03
    2.946928e+01    3.532560e+01    6.000000e+01   -5.947747e+03
    2.629204e+01    3.775009e+01    6.000000e+01   -9.506968e+03
    2.291615e+01    3.988993e+01    6.000000e+01   -1.347771e+04
    1.936715e+01    4.172848e+01    6.000000e+01   -1.754656e+04
    1.567232e+01    4.325198e+01    6.000000e+01   -2.134834e+04
    1.185889e+01    4.444924e+01    6.000000e+01   -2.451559e+04
    7.955883e+00    4.531076e+01    6.000000e+01   -2.672727e+04
    3.993184e+00    4.583030e+01    6.000000e+01   -2.775173e+04
    0.000000e+00    4.600405e+01    6.000000e+01   -2.747682e+04
   -3.993184e+00    4.583030e+01    6.000000e+01   -2.592474e+04
   -7.955646e+00    4.531081e+01    6.000000e+01   -2.324954e+04
   -1.185862e+01    4.444932e+01    6.000000e+01   -1.971930e+04
   -1.567211e+01    4.325205e+01    6.000000e+01   -1.568162e+04
   -1.936793e+01    4.172808e+01    6.000000e+01   -1.151923e+04
   -2.291897e+01    3.988821e+01    6.000000e+01   -7.601962e+03
   -2.629731e+01    3.774624e+01    6.000000e+01   -4.235321e+03
   -2.947697e+01    3.531904e+01    6.000000e+01   -1.616882e+03
   -3.243381e+01    3.262479e+01    6.000000e+01    1.932465e+02
   -3.514428e+01    2.968480e+01    6.000000e+01    1.282183e+03
   -3.759023e+01    2.651936e+01    6.000000e+01    1.873466e+03
   -3.975154e+01    2.315402e+01    6.000000e+01    2.284778e+03
   -4.161308e+01    1.961149e+01    6.000000e+01    2.837344e+03
   -4.315985e+01    1.592045e+01    6.000000e+01    3.664873e+03
   -4.438299e+01    1.209670e+01    6.000000e+01   -1.208571e+05
   -4.524409e+01    8.137423e+00    6.000000e+01   -1.208571e+05
   -2.076586e+01    7.239084e+00    6.000000e+01    1.765906e+05
   -1.923903e+01    1.070065e+01    6.000000e+01   -1.403782e+04
   -1.706956e+01    1.390049e+01    6.000000e+01   -2.609243e+03
   -1.435218e+01    1.669166e+01    6.000000e+01   -3.136822e+03
   -1.117956e+01    1.896378e+01    6.000000e+01   -7.140910e+03
   -7.653899e+00    2.064061e+01    6.000000e+01   -1.034721e+04
   -3.887942e+00    2.166817e+01    6.000000e+01   -1.160711e+04
    0.000000e+00    2.201434e+01    6.000000e+01   -1.176514e+04
    3.887962e+00    2.166817e+01    6.000000e+01   -3.012752e+04
    7.653766e+00    2.064067e+01    6.000000e+01   -2.777296e+04
    1.117939e+01    1.896389e+01    6.000000e+01   -2.236702e+04
    1.435153e+01    1.669225e+01    6.000000e+01   -1.534748e+04
    1.706858e+01    1.390179e+01    6.000000e+01   -1.207906e+04
    1.923739e+01    1.070385e+01    6.000000e+01   -1.654638e+04
    2.075951e+01    7.244071e+00    6.000000e+01   -4.005540e+05
   -3.761756e+01    4.010140e+00    6.000000e+01   -7.343010e+04
   -3.355935e+01    4.010137e+00    6.000000e+01   -1.269036e+04
   -2.953620e+01    4.010619e+00    6.000000e+01    2.044767e+03
   -2.554584e+01    3.954124e+00    6.000000e+01    9.405020e+03
    2.551887e+01    3.953839e+00    6.000000e+01   -3.217138e+05
    4.162606e+01    4.017016e+00    6.000000e+01    9.985417e+03
    3.756564e+01    4.010135e+00    6.000000e+01    8.508928e+05
    2.949025e+01    4.010464e+00    6.000000e+01   -9.014153e+04
    3.352269e+01    4.010140e+00    6.000000e+01    1.787945e+05
   -2.200000e+01    0.000000e+00    5.600000e+01   -1.839271e+04
   -2.163875e+01    3.628618e+00    5.600000e+01    5.996065e+04
   -1.772654e+01    3.125667e+00    5.600000e+01    1.044560e+05
   -1.800000e+01    0.000000e+00    5.600000e+01    4.534102e+04
   -2.200000e+01    0.000000e+00    5.200000e+01   -9.406626e+03
   -2.163875e+01    3.628618e+00    5.200000e+01    1.707497e+04
   -1.772654e+01    3.125667e+00    5.200000e+01    3.278284e+04
   -1.800000e+01    0.000000e+00    5.200000e+01    1.678232e+04
   -2.200000e+01    0.000000e+00    4.800000e+01   -5.118089e+03
   -2.163875e+01    3.628618e+00    4.800000e+01    4.800898e+03
   -1.772654e+01    3.125667e+00    4.800000e+01    1.277150e+04
   -1.800000e+01    0.000000e+00    4.800000e+01    5.680026e+03
   -2.200000e+01    0.000000e+00    4.400000e+01   -2.864428e+03
   -2.163875e+01    3.628618e+00    4.400000e+01    1.050579e+03
   -1.772654e+01    3.125667e+00    4.400000e+01    5.963906e+03
   -1.800000e+01    0.000000e+00    4.400000e+01    2.424445e+03
   -2.200000e+01    0.000000e+00    4.000000e+01   -1.538947e+03
   -2.163875e+01    3.628618e+00    4.000000e+01    4.367366e+02
   -1.772654e+01    3.125667e+00    4.000000e+01    4.299125e+03
   -1.800000e+01    0.000000e+00    4.000000e+01    1.639273e+03
   -2.200000e+01    0.000000e+00    3.600000e+01   -6.593507e+02
   -2.163875e+01    3.628618e+00    3.600000e+01    1.252897e+03
   -1.772654e+01    3.125667e+00    3.600000e+01    4.821148e+03
   -1.800000e+01    0.000000e+00    3.600000e+01    2.015591e+03
   -2.200000e+01    0.000000e+00    3.200000e+01    2.595027e+01
   -2.163875e+01    3.628618e+00    3.200000e+01    2.899080e+03
   -1.772654e+01    3.125667e+00    3.200000e+01    6.439229e+03
   -1.800000e+01    0.000000e+00    3.200000e+01    2.914459e+03
   -2.200000e+01    0.000000e+00    2.800000e+01    6.599163e+02
   -2.163875e+01    3.628618e+00    2.800000e+01    5.109186e+03
   -1.772654e+01    3.125667e+00    2.800000e+01    8.509834e+03
   -1.800000e+01    0.000000e+00    2.800000e+01    3.952435e+03
   -2.200000e+01    0.000000e+00    2.400000e+01    1.342017e+03
   -2.163875e+01    3.628618e+00    2.400000e+01    7.748641e+03
   -1.772654e+01    3.125667e+00    2.400000e+01    1.042239e+04
   -1.800000e+01    0.000000e+00    2.400000e+01    4.714959e+03
   -2.200000e+01    0.000000e+00    2.000000e+01    2.186260e+03
   -2.163875e+01    3.628618e+00    2.000000e+01    1.076390e+04
   -1.772654e+01    3.125667e+00    2.000000e+01    1.141222e+04
   -1.800000e+01    0.000000e+00    2.000000e+01    4.708251e+03
   -2.200000e+01    0.000000e+00    1.600000e+01    3.424249e+03
   -2.163875e+01    3.628618e+00    1.600000e+01    1.439974e+04
   -1.772654e+01    3.125667e+00    1.600000e+01    1.074340e+04
   -1.800000e+01    0.000000e+00    1.600000e+01    3.067860e+03
   -2.200000e+01    0.000000e+00    1.200000e+01    5.844632e+03
   -2.163875e+01    3.628618e+00    1.200000e+01    1.932256e+04
   -1.772654e+01    3.125667e+00    1.200000e+01    7.248535e+03
   -1.800000e+01    0.000000e+00    1.200000e+01    2.454874e+02
   -2.200000e+01    0.000000e+00    8.000000e+00    1.128305e+04
   -2.163875e+01    3.628618e+00    8.000000e+00    3.076662e+04
   -1.772654e+01    3.125667e+00    8.000000e+00    1.929007e+03
   -1.800000e+01    0.000000e+00    8.000000e+00   -1.040100e+04
   -2.200000e+01    0.000000e+00    4.000000e+00    3.585267e+04
   -2.163875e+01    3.628618e+00    4.000000e+00    6.426153e+04
   -1.772654e+01    3.125667e+00    4.000000e+00    1.936406e+04
   -1.800000e+01    0.000000e+00    4.000000e+00    2.790144e+04
   -2.200000e+01    0.000000e+00    0.000000e+00    3.585267e+04
   -2.163875e+01    3.628618e+00    0.000000e+00    6.426153e+04
   -1.772654e+01    3.125667e+00    0.000000e+00    1.936406e+04
   -1.800000e+01    0.000000e+00    0.000000e+00    2.790144e+04
    1.772654e+01    3.125667e+00    5.600000e+01   -1.251866e+05
    2.161991e+01    3.629295e+00    5.600000e+01   -1.105630e+05
    2.200000e+01    0.000000e+00    5.600000e+01   -1.288693e+04
    1.800000e+01    0.000000e+00    5.600000e+01   -1.367168e+04
    1.772654e+01    3.125667e+00    5.200000e+01   -4.885162e+04
    2.161991e+01    3.629295e+00    5.200000e+01   -3.956480e+04
    2.200000e+01    0.000000e+00    5.200000e+01   -6.889309e+03
    1.800000e+01    0.000000e+00    5.200000e+01   -7.240017e+03
    1.772654e+01    3.125667e+00    4.800000e+01   -2.161011e+04
    2.161991e+01    3.629295e+00    4.800000e+01   -1.533378e+04
    2.200000e+01    0.000000e+00    4.800000e+01   -3.835322e+03
    1.800000e+01    0.000000e+00    4.800000e+01   -4.229223e+03
    1.772654e+01    3.125667e+00    4.400000e+01   -1.156521e+04
    2.161991e+01    3.629295e+00    4.400000e+01   -6.789713e+03
    2.200000e+01    0.000000e+00    4.400000e+01   -2.149093e+03
    1.800000e+01    0.000000e+00    4.400000e+01   -2.548190e+03
    1.772654e+01    3.125667e+00    4.000000e+01   -7.517411e+03
    2.161991e+01    3.629295e+00    4.000000e+01   -3.752451e+03
    2.200000e+01    0.000000e+00    4.000000e+01   -1.146938e+03
    1.800000e+01    0.000000e+00    4.000000e+01   -1.434983e+03
    1.772654e+01    3.125667e+00    3.600000e+01   -6.192645e+03
    2.161991e+01    3.629295e+00    3.600000e+01   -3.467999e+03
    2.200000e+01    0.000000e+00    3.600000e+01   -4.856741e+02
    1.800000e+01    0.000000e+00    3.600000e+01   -5.882498e+02
    1.772654e+01    3.125667e+00    3.200000e+01   -6.122495e+03
    2.161991e+01    3.629295e+00    3.200000e+01   -4.729935e+03
    2.200000e+01    0.000000e+00    3.200000e+01    2.616174e+01
    1.800000e+01    0.000000e+00    3.200000e+01    1.444311e+02
    1.772654e+01    3.125667e+00    2.800000e+01   -6.386305e+03
    2.161991e+01    3.629295e+00    2.800000e+01   -6.865066e+03
    2.200000e+01    0.000000e+00    2.800000e+01    5.149521e+02
    1.800000e+01    0.000000e+00    2.800000e+01    8.472841e+02
    1.772654e+01    3.125667e+00    2.400000e+01   -6.033767e+03
    2.161991e+01    3.629295e+00    2.400000e+01   -9.382673e+03
    2.200000e+01    0.000000e+00    2.400000e+01    1.084322e+03
    1.800000e+01    0.000000e+00    2.400000e+01    1.574330e+03
    1.772654e+01    3.125667e+00    2.000000e+01   -3.907453e+03
    2.161991e+01    3.629295e+00    2.000000e+01   -1.190480e+04
    2.200000e+01    0.000000e+00    2.000000e+01    1.855948e+03
    1.800000e+01    0.000000e+00    2.000000e+01    2.392940e+03
    1.772654e+01    3.125667e+00    1.600000e+01    1.910622e+03
    2.161991e+01    3.629295e+00    1.600000e+01   -1.426555e+04
    2.200000e+01    0.000000e+00    1.600000e+01    3.037547e+03
    1.800000e+01    0.000000e+00    1.600000e+01    3.457986e+03
    1.772654e+01    3.125667e+00    1.200000e+01    1.244621e+04
    2.161991e+01    3.629295e+00    1.200000e+01   -1.732864e+04
    2.200000e+01    0.000000e+00    1.200000e+01    5.305655e+03
    1.800000e+01    0.000000e+00    1.200000e+01    5.530387e+03
    1.772654e+01    3.125667e+00    8.000000e+00    4.233123e+04
    2.161991e+01    3.629295e+00    8.000000e+00   -2.241027e+04
    2.200000e+01    0.000000e+00    8.000000e+00    1.010821e+04
    1.800000e+01    0.000000e+00    8.000000e+00    1.007840e+04
    1.772654e+01    3.125667e+00    4.000000e+00    1.874748e+04
    2.161991e+01    3.629295e+00    4.000000e+00   -9.887836e+04
    2.200000e+01    0.000000e+00    4.000000e+00    2.815510e+04
    1.800000e+01    0.000000e+00    4.000000e+00    3.810193e+04
    1.772654e+01    3.125667e+00    0.000000e+00    1.874748e+04
    2.161991e+01    3.629295e+00    0.000000e+00   -9.887836e+04
    2.200000e+01    0.000000e+00    0.000000e+00    2.815510e+04
    1.800000e+01    0.000000e+00    0.000000e+00    3.810193e+04
   -4.980973e+01    4.357787e+00    5.600000e+01    1.347811e+05
   -4.573892e+01    4.102273e+00    5.600000e+01    5.637290e+03
   -4.600000e+01    0.000000e+00    5.600000e+01    3.783926e+03
   -5.000000e+01    0.000000e+00    5.600000e+01    9.436393e+03
   -4.980973e+01    4.357787e+00    5.200000e+01    1.003472e+05
   -4.573892e+01    4.102273e+00    5.200000e+01    4.494120e+03
   -4.600000e+01    0.000000e+00    5.200000e+01    2.822134e+03
   -5.000000e+01    0.000000e+00    5.200000e+01    7.415400e+03
   -4.980973e+01    4.357787e+00    4.800000e+01    7.635198e+04
   -4.573892e+01    4.102273e+00    4.800000e+01    3.425682e+03
   -4.600000e+01    0.000000e+00    4.800000e+01    2.018465e+03
   -5.000000e+01    0.000000e+00    4.800000e+01    5.598622e+03
   -4.980973e+01    4.357787e+00    4.400000e+01    5.673981e+04
   -4.573892e+01    4.102273e+00    4.400000e+01    2.505230e+03
   -4.600000e+01    0.000000e+00    4.400000e+01    1.387376e+03
   -5.000000e+01    0.000000e+00    4.400000e+01    3.996490e+03
   -4.980973e+01    4.357787e+00    4.000000e+01    3.905771e+04
   -4.573892e+01    4.102273e+00    4.000000e+01    1.734014e+03
   -4.600000e+01    0.000000e+00    4.000000e+01    8.739060e+02
   -5.000000e+01    0.000000e+00    4.000000e+01    2.542725e+03
   -4.980973e+01    4.357787e+00    3.600000e+01    2.247976e+04
   -4.573892e+01    4.102273e+00    3.600000e+01    1.061529e+03
   -4.600000e+01    0.000000e+00    3.600000e+01    4.297630e+02
   -5.000000e+01    0.000000e+00    3.600000e+01    1.177924e+03
   -4.980973e+01    4.357787e+00    3.200000e+01    6.628919e+03
   -4.573892e+01    4.102273e+00    3.200000e+01    4.221588e+02
   -4.600000e+01    0.000000e+00    3.200000e+01    7.541647e+00
   -5.000000e+01    0.000000e+00    3.200000e+01   -1.510236e+02
   -4.980973e+01    4.357787e+00    2.800000e+01   -8.688371e+03
   -4.573892e+01    4.102273e+00    2.800000e+01   -2.569134e+02
   -4.600000e+01    0.000000e+00    2.800000e+01   -4.408268e+02
   -5.000000e+01    0.000000e+00    2.800000e+01   -1.496302e+03
   -4.980973e+01    4.357787e+00    2.400000e+01   -2.356564e+04
   -4.573892e+01    4.102273e+00    2.400000e+01   -1.059255e+03
   -4.600000e+01    0.000000e+00    2.400000e+01   -9.701242e+02
   -5.000000e+01    0.000000e+00    2.400000e+01   -2.915096e+03
   -4.980973e+01    4.357787e+00    2.000000e+01   -3.800737e+04
   -4.573892e+01    4.102273e+00    2.000000e+01   -2.086986e+03
   -4.600000e+01    0.000000e+00    2.000000e+01   -1.651396e+03
   -5.000000e+01    0.000000e+00    2.000000e+01   -4.480273e+03
   -4.980973e+01    4.357787e+00    1.600000e+01   -5.194891e+04
   -4.573892e+01    4.102273e+00    1.600000e+01   -3.476067e+03
   -4.600000e+01    0.000000e+00    1.600000e+01   -2.590670e+03
   -5.000000e+01    0.000000e+00    1.600000e+01   -6.299450e+03
   -4.980973e+01    4.357787e+00    1.200000e+01   -6.534614e+04
   -4.573892e+01    4.102273e+00    1.200000e+01   -5.416943e+03
   -4.600000e+01    0.000000e+00    1.200000e+01   -3.990433e+03
   -5.000000e+01    0.000000e+00    1.200000e+01   -8.601369e+03
   -4.980973e+01    4.357787e+00    8.000000e+00   -7.764072e+04
   -4.573892e+01    4.102273e+00    8.000000e+00   -8.290395e+03
   -4.600000e+01    0.000000e+00    8.000000e+00   -6.352734e+03
   -5.000000e+01    0.000000e+00    8.000000e+00   -1.175864e+04
   -4.980973e+01    4.357787e+00    4.000000e+00   -8.149406e+04
   -4.573892e+01    4.102273e+00    4.000000e+00   -1.336428e+04
   -4.600000e+01    0.000000e+00    4.000000e+00   -1.206519e+04
   -5.000000e+01    0.000000e+00    4.000000e+00   -1.862686e+04
   -4.980973e+01    4.357787e+00    0.000000e+00   -8.149406e+04
   -4.573892e+01    4.102273e+00    0.000000e+00   -1.336428e+04
   -4.600000e+01    0.000000e+00    0.000000e+00   -1.206519e+04
   -5.000000e+01    0.000000e+00    0.000000e+00   -1.862686e+04
    4.600000e+01    0.000000e+00    5.600000e+01   -3.071771e+04
    4.571434e+01    4.109567e+00    5.600000e+01    8.368683e+03
    4.980973e+01    4.357787e+00    5.600000e+01   -8.863198e+04
    5.000000e+01    0.000000e+00    5.600000e+01   -4.565262e+04
    4.600000e+01    0.000000e+00    5.200000e+01   -2.103543e+04
    4.571434e+01    4.109567e+00    5.200000e+01    6.615344e+03
    4.980973e+01    4.357787e+00    5.200000e+01   -6.381739e+04
    5.000000e+01    0.000000e+00    5.200000e+01   -3.482860e+04
    4.600000e+01    0.000000e+00    4.800000e+01   -1.520362e+04
    4.571434e+01    4.109567e+00    4.800000e+01    5.017405e+03
    4.980973e+01    4.357787e+00    4.800000e+01   -4.863920e+04
    5.000000e+01    0.000000e+00    4.800000e+01   -2.687002e+04
    4.600000e+01    0.000000e+00    4.400000e+01   -1.075948e+04
    4.571434e+01    4.109567e+00    4.400000e+01    3.628364e+03
    4.980973e+01    4.357787e+00    4.400000e+01   -3.661367e+04
    5.000000e+01    0.000000e+00    4.400000e+01   -2.025887e+04
    4.600000e+01    0.000000e+00    4.000000e+01   -6.935897e+03
    4.571434e+01    4.109567e+00    4.000000e+01    2.401431e+03
    4.980973e+01    4.357787e+00    4.000000e+01   -2.596128e+04
    5.000000e+01    0.000000e+00    4.000000e+01   -1.415700e+04
    4.600000e+01    0.000000e+00    3.600000e+01   -3.465995e+03
    4.571434e+01    4.109567e+00    3.600000e+01    1.276226e+03
    4.980973e+01    4.357787e+00    3.600000e+01   -1.604123e+04
    5.000000e+01    0.000000e+00    3.600000e+01   -8.372405e+03
    4.600000e+01    0.000000e+00    3.200000e+01   -2.195545e+02
    4.571434e+01    4.109567e+00    3.200000e+01    1.886048e+02
    4.980973e+01    4.357787e+00    3.200000e+01   -6.665980e+03
    5.000000e+01    0.000000e+00    3.200000e+01   -2.826539e+03
    4.600000e+01    0.000000e+00    2.800000e+01    2.877040e+03
    4.571434e+01    4.109567e+00    2.800000e+01   -9.291210e+02
    4.980973e+01    4.357787e+00    2.800000e+01    2.186891e+03
    5.000000e+01    0.000000e+00    2.800000e+01    2.501777e+03
    4.600000e+01    0.000000e+00    2.400000e+01    5.871604e+03
    4.571434e+01    4.109567e+00    2.400000e+01   -2.154091e+03
    4.980973e+01    4.357787e+00    2.400000e+01    1.044569e+04
    5.000000e+01    0.000000e+00    2.400000e+01    7.590816e+03
    4.600000e+01    0.000000e+00    2.000000e+01    8.814171e+03
    4.571434e+01    4.109567e+00    2.000000e+01   -3.582424e+03
    4.980973e+01    4.357787e+00    2.000000e+01    1.797154e+04
    5.000000e+01    0.000000e+00    2.000000e+01    1.235177e+04
    4.600000e+01    0.000000e+00    1.600000e+01    1.179828e+04
    4.571434e+01    4.109567e+00    1.600000e+01   -5.358558e+03
    4.980973e+01    4.357787e+00    1.600000e+01    2.457562e+04
    5.000000e+01    0.000000e+00    1.600000e+01    1.658655e+04
    4.600000e+01    0.000000e+00    1.200000e+01    1.509018e+04
    4.571434e+01    4.109567e+00    1.200000e+01   -7.681907e+03
    4.980973e+01    4.357787e+00    1.200000e+01    3.028649e+04
    5.000000e+01    0.000000e+00    1.200000e+01    1.986557e+04
    4.600000e+01    0.000000e+00    8.000000e+00    1.856504e+04
    4.571434e+01    4.109567e+00    8.000000e+00   -1.115922e+04
    4.980973e+01    4.357787e+00    8.000000e+00    3.464917e+04
    5.000000e+01    0.000000e+00    8.000000e+00    2.100068e+04
    4.600000e+01    0.000000e+00    4.000000e+00    2.300245e+04
    4.571434e+01    4.109567e+00    4.000000e+00   -1.567051e+04
    4.980973e+01    4.357787e+00    4.000000e+00    2.948205e+04
    5.000000e+01    0.000000e+00    4.000000e+00    1.742551e+04
    4.600000e+01    0.000000e+00    0.000000e+00    2.300245e+04
    4.571434e+01    4.109567e+00    0.000000e+00   -1.567051e+04
    4.980973e+01    4.357787e+00    0.000000e+00    2.948205e+04
    5.000000e+01    0.000000e+00    0.000000e+00    1.742551e+04
   -4.165214e+01    4.015303e+00    5.600000e+01    5.637290e+03
   -4.200000e+01    0.000000e+00    5.600000e+01   -7.517026e+02
   -4.165214e+01    4.015303e+00    5.200000e+01    4.494120e+03
   -4.200000e+01    0.000000e+00    5.200000e+01   -3.426651e+02
   -4.165214e+01    4.015303e+00    4.800000e+01    3.425682e+03
   -4.200000e+01    0.000000e+00    4.800000e+01   -1.874973e+02
   -4.165214e+01    4.015303e+00    4.400000e+01    2.505230e+03
   -4.200000e+01    0.000000e+00    4.400000e+01   -9.290706e+01
   -4.165214e+01    4.015303e+00    4.000000e+01    1.734014e+03
   -4.200000e+01    0.000000e+00    4.000000e+01   -1.240417e+01
   -4.165214e+01    4.015303e+00    3.600000e+01    1.061529e+03
   -4.200000e+01    0.000000e+00    3.600000e+01    6.015741e+01
   -4.165214e+01    4.015303e+00    3.200000e+01    4.221588e+02
   -4.200000e+01    0.000000e+00    3.200000e+01    1.172528e+02
   -4.165214e+01    4.015303e+00    2.800000e+01   -2.569134e+02
   -4.200000e+01    0.000000e+00    2.800000e+01    1.447917e+02
   -4.165214e+01    4.015303e+00    2.400000e+01   -1.059255e+03
   -4.200000e+01    0.000000e+00    2.400000e+01    1.201917e+02
   -4.165214e+01    4.015303e+00    2.000000e+01   -2.086986e+03
   -4.200000e+01    0.000000e+00    2.000000e+01    6.653582e+00
   -4.165214e+01    4.015303e+00    1.600000e+01   -3.476067e+03
   -4.200000e+01    0.000000e+00    1.600000e+01   -2.489896e+02
   -4.165214e+01    4.015303e+00    1.200000e+01   -5.416943e+03
   -4.200000e+01    0.000000e+00    1.200000e+01   -7.603996e+02
   -4.165214e+01    4.015303e+00    8.000000e+00   -8.290395e+03
   -4.200000e+01    0.000000e+00    8.000000e+00   -1.863106e+03
   -4.165214e+01    4.015303e+00    4.000000e+00   -1.336428e+04
   -4.200000e+01    0.000000e+00    4.000000e+00   -4.139611e+03
   -4.165214e+01    4.015303e+00    0.000000e+00   -1.336428e+04
   -4.200000e+01    0.000000e+00    0.000000e+00   -4.139611e+03
    4.523563e+01    8.152204e+00    5.600000e+01    6.767563e+03
    4.924039e+01    8.682409e+00    5.600000e+01   -1.097683e+05
    4.523563e+01    8.152204e+00    5.200000e+01    5.718904e+03