TITLE="test case governed by poisson equation"
VARIABLES="x""y""z""sigax"
ZONE N=    2976,E=    1860,ET=BRICK,F=FEPOINT
    5.000000e+01    0.000000e+00    6.000000e+01   -4.171081e+04
    4.980973e+01    4.357787e+00    6.000000e+01   -6.549853e+04
    4.924039e+01    8.682409e+00    6.000000e+01   -7.508715e+04
    4.829629e+01    1.294095e+01    6.000000e+01   -7.899108e+04
    4.698463e+01    1.710101e+01    6.000000e+01   -7.574452e+04
    4.531539e+01    2.113091e+01    6.000000e+01   -6.538948e+04
    4.330127e+01    2.500000e+01    6.000000e+01   -4.927104e+04
    4.095760e+01    2.867882e+01    6.000000e+01   -2.839683e+04
    3.830222e+01    3.213938e+01    6.000000e+01   -4.396048e+03
    3.535534e+01    3.535534e+01    6.000000e+01    2.050689e+04
    3.213938e+01    3.830222e+01    6.000000e+01    4.377486e+04
    2.867882e+01    4.095760e+01    6.000000e+01    6.276133e+04
    2.500000e+01    4.330127e+01    6.000000e+01    7.510710e+04
    2.113091e+01    4.531539e+01    6.000000e+01    7.906674e+04
    1.710101e+01    4.698463e+01    6.000000e+01    7.358355e+04
    1.294095e+01    4.829629e+01    6.000000e+01    5.874206e+04
    8.682409e+00    4.924039e+01    6.000000e+01    3.572762e+04
    4.357787e+00    4.980973e+01    6.000000e+01    6.653165e+03
    0.000000e+00    5.000000e+01    6.000000e+01   -2.540044e+04
   -4.357787e+00    4.980973e+01    6.000000e+01   -5.685932e+04
   -8.682409e+00    4.924039e+01    6.000000e+01   -8.385040e+04
   -1.294095e+01    4.829629e+01    6.000000e+01   -1.027376e+05
   -1.710101e+01    4.698463e+01    6.000000e+01   -1.103911e+05
   -2.113091e+01    4.531539e+01    6.000000e+01   -1.045841e+05
   -2.500000e+01    4.330127e+01    6.000000e+01   -8.497413e+04
   -2.867882e+01    4.095760e+01    6.000000e+01   -5.279344e+04
   -3.213938e+01    3.830222e+01    6.000000e+01   -1.045045e+04
   -3.535534e+01    3.535534e+01    6.000000e+01    3.871860e+04
   -3.830222e+01    3.213938e+01    6.000000e+01    9.043835e+04
   -4.095760e+01    2.867882e+01    6.000000e+01    1.402701e+05
   -4.330127e+01    2.500000e+01    6.000000e+01    1.822128e+05
   -4.531539e+01    2.113091e+01    6.000000e+01    2.106998e+05
   -4.698463e+01    1.710101e+01    6.000000e+01    2.064881e+05
   -4.829629e+01    1.294095e+01    6.000000e+01    1.530360e+05
   -4.924039e+01    8.682409e+00    6.000000e+01    9.003737e+04
   -4.980973e+01    4.357787e+00    6.000000e+01    9.003737e+04
   -5.000000e+01    0.000000e+00    6.000000e+01    2.822765e+03
   -4.600000e+01    0.000000e+00    6.000000e+01   -2.777139e+03
   -4.200000e+01    0.000000e+00    6.000000e+01   -8.202822e+03
   -3.800000e+01    0.000000e+00    6.000000e+01   -1.333258e+04
   -3.400000e+01    0.000000e+00    6.000000e+01   -2.452639e+04
   -3.000000e+01    0.000000e+00    6.000000e+01   -4.275430e+04
   -2.600000e+01    0.000000e+00    6.000000e+01   -6.798272e+04
   -2.200000e+01    0.000000e+00    6.000000e+01   -6.798272e+04
   -1.800000e+01    0.000000e+00    6.000000e+01    1.415497e+05
   -1.772654e+01    3.125667e+00    6.000000e+01    2.291343e+05
   -1.691447e+01    6.156363e+00    6.000000e+01    2.658503e+05
   -1.558846e+01    9.000000e+00    6.000000e+01    2.918318e+05
   -1.378880e+01    1.157018e+01    6.000000e+01    2.929739e+05
   -1.157018e+01    1.378880e+01    6.000000e+01    2.618334e+05
   -9.000000e+00    1.558846e+01    6.000000e+01    2.044333e+05
   -6.156363e+00    1.691447e+01    6.000000e+01    1.284563e+05
   -3.125667e+00    1.772654e+01    6.000000e+01    3.853712e+04
    0.000000e+00    1.800000e+01    6.000000e+01   -6.506839e+04
    3.125667e+00    1.772654e+01    6.000000e+01   -1.830255e+05
    6.156363e+00    1.691447e+01    6.000000e+01   -3.108206e+05
    9.000000e+00    1.558846e+01    6.000000e+01   -4.328551e+05
    1.157018e+01    1.378880e+01    6.000000e+01   -5.211975e+05
    1.378880e+01    1.157018e+01    6.000000e+01   -5.320495e+05
    1.558846e+01    9.000000e+00    6.000000e+01   -4.539555e+05
    1.691447e+01    6.156363e+00    6.000000e+01   -2.916714e+05
    1.772654e+01    3.125667e+00    6.000000e+01   -2.916714e+05
    1.800000e+01    0.000000e+00    6.000000e+01   -4.595589e+04
    2.200000e+01    0.000000e+00    6.000000e+01   -3.560820e+04
    2.600000e+01    0.000000e+00    6.000000e+01   -2.340458e+04
    3.000000e+01    0.000000e+00    6.000000e+01   -1.369609e+04
    3.400000e+01    0.000000e+00    6.000000e+01   -8.452659e+03
    3.800000e+01    0.000000e+00    6.000000e+01   -8.452659e+03
    4.200000e+01    0.000000e+00    6.000000e+01   -1.660232e+04
    4.600000e+01    0.000000e+00    6.000000e+01   -3.078602e+04
   -2.473863e+01    8.000000e+00    6.000000e+01   -8.595293e+03
   -2.886174e+01    8.000000e+00    6.000000e+01   -6.675469e+03
   -3.298485e+01    8.000000e+00    6.000000e+01   -1.218917e+04
   -3.710795e+01    8.000000e+00    6.000000e+01   -4.074502e+04
   -4.123106e+01    8.000000e+00    6.000000e+01   -5.950283e+04
   -4.038926e+01    1.151989e+01    6.000000e+01   -5.950283e+04
   -3.924756e+01    1.495423e+01    6.000000e+01    7.305840e+03
   -3.781444e+01    1.827754e+01    6.000000e+01    9.440298e+03
   -3.610053e+01    2.146513e+01    6.000000e+01    9.315967e+03
   -3.411856e+01    2.449334e+01    6.000000e+01    7.485590e+03
   -3.188326e+01    2.733967e+01    6.000000e+01    4.532512e+03
   -2.941121e+01    2.998300e+01    6.000000e+01    1.008548e+03
   -2.672078e+01    3.240370e+01    6.000000e+01   -2.593949e+03
   -2.383193e+01    3.458380e+01    6.000000e+01   -5.890628e+03
   -2.076613e+01    3.650709e+01    6.000000e+01   -8.631872e+03
   -1.754613e+01    3.815931e+01    6.000000e+01   -1.070638e+04
   -1.419585e+01    3.952819e+01    6.000000e+01   -1.212812e+04
   -1.074016e+01    4.060356e+01    6.000000e+01   -1.300083e+04
   -7.204722e+00    4.137743e+01    6.000000e+01   -1.347938e+04
   -3.615785e+00    4.184407e+01    6.000000e+01   -1.372894e+04
    0.000000e+00    4.200000e+01    6.000000e+01   -1.388205e+04
    3.615785e+00    4.184407e+01    6.000000e+01   -1.401358e+04
    7.204722e+00    4.137743e+01    6.000000e+01   -1.412177e+04
    1.074016e+01    4.060356e+01    6.000000e+01   -1.412725e+04
    1.419585e+01    3.952819e+01    6.000000e+01   -1.388883e+04
    1.754613e+01    3.815931e+01    6.000000e+01   -1.322751e+04
    2.076613e+01    3.650709e+01    6.000000e+01   -1.196866e+04
    2.383193e+01    3.458380e+01    6.000000e+01   -9.982895e+03
    2.672078e+01    3.240370e+01    6.000000e+01   -7.226973e+03
    2.941121e+01    2.998300e+01    6.000000e+01   -3.782185e+03
    3.188326e+01    2.733967e+01    6.000000e+01    1.282771e+02
    3.411856e+01    2.449334e+01    6.000000e+01    4.136436e+03
    3.610053e+01    2.146513e+01    6.000000e+01    7.752005e+03
    3.781444e+01    1.827754e+01    6.000000e+01    1.041211e+04
    3.924756e+01    1.495423e+01    6.000000e+01    1.150844e+04
    4.038926e+01    1.151989e+01    6.000000e+01    1.044987e+04
    4.123106e+01    8.000000e+00    6.000000e+01    7.106565e+03
    3.710795e+01    8.000000e+00    6.000000e+01    3.592772e+05
    3.298485e+01    8.000000e+00    6.000000e+01    7.157319e+04
    2.886174e+01    8.000000e+00    6.000000e+01   -4.524833e+04
    2.473863e+01    8.000000e+00    6.000000e+01   -1.495633e+05
    2.291017e+01    1.229325e+01    6.000000e+01   -1.112796e+05
    2.034373e+01    1.619051e+01    6.000000e+01   -1.140124e+05
    1.712198e+01    1.956624e+01    6.000000e+01   -9.356704e+04
    1.334870e+01    2.231171e+01    6.000000e+01   -6.451963e+04
    9.145430e+00    2.433847e+01    6.000000e+01   -3.658255e+04
    4.647568e+00    2.558125e+01    6.000000e+01   -1.563097e+04
    0.000000e+00    2.600000e+01    6.000000e+01    8.578597e+02
   -4.647568e+00    2.558125e+01    6.000000e+01   -4.767270e+03
   -9.145430e+00    2.433847e+01    6.000000e+01   -1.516171e+04
   -1.334870e+01    2.231171e+01    6.000000e+01   -2.971038e+04
   -1.712198e+01    1.956624e+01    6.000000e+01   -4.577500e+04
   -2.034373e+01    1.619051e+01    6.000000e+01   -5.784779e+04
   -2.291017e+01    1.229325e+01    6.000000e+01   -6.080793e+04
   -2.163875e+01    3.628618e+00    6.000000e+01    9.876491e+04
    2.161991e+01    3.629295e+00    6.000000e+01   -2.054021e+05
   -4.573892e+01    4.102273e+00    6.000000e+01   -7.675091e+02
    4.571434e+01    4.109567e+00    6.000000e+01    1.777503e+03
   -4.165214e+01    4.015303e+00    6.000000e+01   -7.675091e+02
    4.523563e+01    8.152204e+00    6.000000e+01    7.106565e+03
    4.437674e+01    1.211971e+01    6.000000e+01    1.044987e+04
    4.315033e+01    1.594729e+01    6.000000e+01    1.150844e+04
    4.160183e+01    1.963603e+01    6.000000e+01    1.041211e+04
    3.973977e+01    2.317461e+01    6.000000e+01    7.752005e+03
    3.757867e+01    2.653596e+01    6.000000e+01    4.136436e+03
    3.513408e+01    2.969708e+01    6.000000e+01    1.282771e+02
    3.242410e+01    3.263458e+01    6.000000e+01   -3.782185e+03
    2.946928e+01    3.532560e+01    6.000000e+01   -7.226973e+03
    2.629204e+01    3.775009e+01    6.000000e+01   -9.982895e+03
    2.291615e+01    3.988993e+01    6.000000e+01   -1.196866e+04
    1.936715e+01    4.172848e+01    6.000000e+01   -1.322751e+04
    1.567232e+01    4.325198e+01    6.000000e+01   -1.388883e+04
    1.185889e+01    4.444924e+01    6.000000e+01   -1.412725e+04
    7.955883e+00    4.531076e+01    6.000000e+01   -1.412177e+04
    3.993184e+00    4.583030e+01    6.000000e+01   -1.401358e+04
    0.000000e+00    4.600405e+01    6.000000e+01   -1.388205e+04
   -3.993184e+00    4.583030e+01    6.000000e+01   -1.372894e+04
   -7.955646e+00    4.531081e+01    6.000000e+01   -1.347938e+04
   -1.185862e+01    4.444932e+01    6.000000e+01   -1.300083e+04
   -1.567211e+01    4.325205e+01    6.000000e+01   -1.212812e+04
   -1.936793e+01    4.172808e+01    6.000000e+01   -1.070638e+04
   -2.291897e+01    3.988821e+01    6.000000e+01   -8.631872e+03
   -2.629731e+01    3.774624e+01    6.000000e+01   -5.890628e+03
   -2.947697e+01    3.531904e+01    6.000000e+01   -2.593949e+03
   -3.243381e+01    3.262479e+01    6.000000e+01    1.008548e+03
   -3.514428e+01    2.968480e+01    6.000000e+01    4.532512e+03
   -3.759023e+01    2.651936e+01    6.000000e+01    7.485590e+03
   -3.975154e+01    2.315402e+01    6.000000e+01    9.315967e+03
   -4.161308e+01    1.961149e+01    6.000000e+01    9.440298e+03
   -4.315985e+01    1.592045e+01    6.000000e+01    7.305840e+03
   -4.438299e+01    1.209670e+01    6.000000e+01   -5.950283e+04
   -4.524409e+01    8.137423e+00    6.000000e+01   -5.950283e+04
   -2.076586e+01    7.239084e+00    6.000000e+01    9.876491e+04
   -1.923903e+01    1.070065e+01    6.000000e+01   -6.080793e+04
   -1.706956e+01    1.390049e+01    6.000000e+01   -5.784779e+04
   -1.435218e+01    1.669166e+01    6.000000e+01   -4.577500e+04
   -1.117956e+01    1.896378e+01    6.000000e+01   -2.971038e+04
   -7.653899e+00    2.064061e+01    6.000000e+01   -1.516171e+04
   -3.887942e+00    2.166817e+01    6.000000e+01   -4.767270e+03
    0.000000e+00    2.201434e+01    6.000000e+01    8.578597e+02
    3.887962e+00    2.166817e+01    6.000000e+01   -1.563097e+04
    7.653766e+00    2.064067e+01    6.000000e+01   -3.658255e+04
    1.117939e+01    1.896389e+01    6.000000e+01   -6.451963e+04
    1.435153e+01    1.669225e+01    6.000000e+01   -9.356704e+04
    1.706858e+01    1.390179e+01    6.000000e+01   -1.140124e+05
    1.923739e+01    1.070385e+01    6.000000e+01   -1.112796e+05
    2.075951e+01    7.244071e+00    6.000000e+01   -2.054021e+05
   -3.761756e+01    4.010140e+00    6.000000e+01   -4.074502e+04
   -3.355935e+01    4.010137e+00    6.000000e+01   -1.218917e+04
   -2.953620e+01    4.010619e+00    6.000000e+01   -6.675469e+03
   -2.554584e+01    3.954124e+00    6.000000e+01   -8.595293e+03
    2.551887e+01    3.953839e+00    6.000000e+01   -1.495633e+05
    4.162606e+01    4.017016e+00    6.000000e+01    1.777503e+03
    3.756564e+01    4.010135e+00    6.000000e+01    3.592772e+05
    2.949025e+01    4.010464e+00    6.000000e+01   -4.524833e+04
    3.352269e+01    4.010140e+00    6.000000e+01    7.157319e+04
   -2.200000e+01    0.000000e+00    5.600000e+01   -2.978222e+04
   -2.163875e+01    3.628618e+00    5.600000e+01    3.795091e+04
   -1.772654e+01    3.125667e+00    5.600000e+01    7.749959e+04
   -1.800000e+01    0.000000e+00    5.600000e+01    2.770500e+04
   -2.200000e+01    0.000000e+00    5.200000e+01   -1.377331e+04
   -2.163875e+01    3.628618e+00    5.200000e+01    1.302787e+04
   -1.772654e+01    3.125667e+00    5.200000e+01    2.927898e+04
   -1.800000e+01    0.000000e+00    5.200000e+01    1.114017e+04
   -2.200000e+01    0.000000e+00    4.800000e+01   -6.652150e+03
   -2.163875e+01    3.628618e+00    4.800000e+01    4.602544e+03
   -1.772654e+01    3.125667e+00    4.800000e+01    1.283854e+04
   -1.800000e+01    0.000000e+00    4.800000e+01    4.555406e+03
   -2.200000e+01    0.000000e+00    4.400000e+01   -3.328343e+03
   -2.163875e+01    3.628618e+00    4.400000e+01    1.525310e+03
   -1.772654e+01    3.125667e+00    4.400000e+01    6.124831e+03
   -1.800000e+01    0.000000e+00    4.400000e+01    2.238027e+03
   -2.200000e+01    0.000000e+00    4.000000e+01   -1.692524e+03
   -2.163875e+01    3.628618e+00    4.000000e+01    6.392863e+02
   -1.772654e+01    3.125667e+00    4.000000e+01    3.580651e+03
   -1.800000e+01    0.000000e+00    4.000000e+01    1.362666e+03
   -2.200000e+01    0.000000e+00    3.600000e+01   -8.578821e+02
   -2.163875e+01    3.628618e+00    3.600000e+01    7.892206e+02
   -1.772654e+01    3.125667e+00    3.600000e+01    2.910221e+03
   -1.800000e+01    0.000000e+00    3.600000e+01    1.166595e+03
   -2.200000e+01    0.000000e+00    3.200000e+01   -3.976496e+02
   -2.163875e+01    3.628618e+00    3.200000e+01    1.518414e+03
   -1.772654e+01    3.125667e+00    3.200000e+01    3.173675e+03
   -1.800000e+01    0.000000e+00    3.200000e+01    1.280957e+03
   -2.200000e+01    0.000000e+00    2.800000e+01   -1.205774e+02
   -2.163875e+01    3.628618e+00    2.800000e+01    2.634957e+03
   -1.772654e+01    3.125667e+00    2.800000e+01    3.898282e+03
   -1.800000e+01    0.000000e+00    2.800000e+01    1.498991e+03
   -2.200000e+01    0.000000e+00    2.400000e+01    5.218964e+01
   -2.163875e+01    3.628618e+00    2.400000e+01    4.083705e+03
   -1.772654e+01    3.125667e+00    2.400000e+01    4.775540e+03
   -1.800000e+01    0.000000e+00    2.400000e+01    1.628439e+03
   -2.200000e+01    0.000000e+00    2.000000e+01    1.641691e+02
   -2.163875e+01    3.628618e+00    2.000000e+01    5.907381e+03
   -1.772654e+01    3.125667e+00    2.000000e+01    5.505429e+03
   -1.800000e+01    0.000000e+00    2.000000e+01    1.452905e+03
   -2.200000e+01    0.000000e+00    1.600000e+01    3.217930e+02
   -2.163875e+01    3.628618e+00    1.600000e+01    8.356746e+03
   -1.772654e+01    3.125667e+00    1.600000e+01    5.759732e+03
   -1.800000e+01    0.000000e+00    1.600000e+01    5.777811e+02
   -2.200000e+01    0.000000e+00    1.200000e+01    8.989123e+02
   -2.163875e+01    3.628618e+00    1.200000e+01    1.189431e+04
   -1.772654e+01    3.125667e+00    1.200000e+01    5.040039e+03
   -1.800000e+01    0.000000e+00    1.200000e+01   -9.708663e+02
   -2.200000e+01    0.000000e+00    8.000000e+00    2.705146e+03
   -2.163875e+01    3.628618e+00    8.000000e+00    1.978506e+04
   -1.772654e+01    3.125667e+00    8.000000e+00    2.405776e+03
   -1.800000e+01    0.000000e+00    8.000000e+00   -6.431234e+03
   -2.200000e+01    0.000000e+00    4.000000e+00    1.155857e+04
   -2.163875e+01    3.628618e+00    4.000000e+00    4.288674e+04
   -1.772654e+01    3.125667e+00    4.000000e+00    1.829506e+04
   -1.800000e+01    0.000000e+00    4.000000e+00    8.248411e+03
   -2.200000e+01    0.000000e+00    0.000000e+00    1.155857e+04
   -2.163875e+01    3.628618e+00    0.000000e+00    4.288674e+04
   -1.772654e+01    3.125667e+00    0.000000e+00    1.829506e+04
   -1.800000e+01    0.000000e+00    0.000000e+00    8.248411e+03
    1.772654e+01    3.125667e+00    5.600000e+01   -7.525804e+04
    2.161991e+01    3.629295e+00    5.600000e+01   -6.430645e+04
    2.200000e+01    0.000000e+00    5.600000e+01   -1.803242e+04
    1.800000e+01    0.000000e+00    5.600000e+01   -1.871645e+04
    1.772654e+01    3.125667e+00    5.200000e+01   -3.051018e+04
    2.161991e+01    3.629295e+00    5.200000e+01   -2.509063e+04
    2.200000e+01    0.000000e+00    5.200000e+01   -8.803155e+03
    1.800000e+01    0.000000e+00    5.200000e+01   -8.592135e+03
    1.772654e+01    3.125667e+00    4.800000e+01   -1.356710e+04
    2.161991e+01    3.629295e+00    4.800000e+01   -1.047364e+04
    2.200000e+01    0.000000e+00    4.800000e+01   -4.433341e+03
    1.800000e+01    0.000000e+00    4.800000e+01   -4.215492e+03
    1.772654e+01    3.125667e+00    4.400000e+01   -6.889426e+03
    2.161991e+01    3.629295e+00    4.400000e+01   -4.774861e+03
    2.200000e+01    0.000000e+00    4.400000e+01   -2.269045e+03
    1.800000e+01    0.000000e+00    4.400000e+01   -2.161577e+03
    1.772654e+01    3.125667e+00    4.000000e+01   -4.109815e+03
    2.161991e+01    3.629295e+00    4.000000e+01   -2.517894e+03
    2.200000e+01    0.000000e+00    4.000000e+01   -1.165759e+03
    1.800000e+01    0.000000e+00    4.000000e+01   -1.108880e+03
    1.772654e+01    3.125667e+00    3.600000e+01   -3.125342e+03
    2.161991e+01    3.629295e+00    3.600000e+01   -1.969231e+03
    2.200000e+01    0.000000e+00    3.600000e+01   -5.744788e+02
    1.800000e+01    0.000000e+00    3.600000e+01   -5.245151e+02
    1.772654e+01    3.125667e+00    3.200000e+01   -2.977867e+03
    2.161991e+01    3.629295e+00    3.200000e+01   -2.349474e+03
    2.200000e+01    0.000000e+00    3.200000e+01   -2.295053e+02
    1.800000e+01    0.000000e+00    3.200000e+01   -1.544766e+02
    1.772654e+01    3.125667e+00    2.800000e+01   -3.140407e+03
    2.161991e+01    3.629295e+00    2.800000e+01   -3.256902e+03
    2.200000e+01    0.000000e+00    2.800000e+01    6.094167e-01
    1.800000e+01    0.000000e+00    2.800000e+01    1.079398e+02
    1.772654e+01    3.125667e+00    2.400000e+01   -3.171969e+03
    2.161991e+01    3.629295e+00    2.400000e+01   -4.445414e+03
    2.200000e+01    0.000000e+00    2.400000e+01    1.831669e+02
    1.800000e+01    0.000000e+00    2.400000e+01    2.984905e+02
    1.772654e+01    3.125667e+00    2.000000e+01   -2.582227e+03
    2.161991e+01    3.629295e+00    2.000000e+01   -5.751268e+03
    2.200000e+01    0.000000e+00    2.000000e+01    3.703847e+02
    1.800000e+01    0.000000e+00    2.000000e+01    4.351873e+02
    1.772654e+01    3.125667e+00    1.600000e+01   -5.409831e+02
    2.161991e+01    3.629295e+00    1.600000e+01   -7.107483e+03
    2.200000e+01    0.000000e+00    1.600000e+01    6.519500e+02
    1.800000e+01    0.000000e+00    1.600000e+01    5.837066e+02
    1.772654e+01    3.125667e+00    1.200000e+01    3.437714e+03
    2.161991e+01    3.629295e+00    1.200000e+01   -8.862319e+03
    2.200000e+01    0.000000e+00    1.200000e+01    1.357256e+03
    1.800000e+01    0.000000e+00    1.200000e+01    1.090764e+03
    1.772654e+01    3.125667e+00    8.000000e+00    1.554601e+04
    2.161991e+01    3.629295e+00    8.000000e+00   -1.167442e+04
    2.200000e+01    0.000000e+00    8.000000e+00    3.079837e+03
    1.800000e+01    0.000000e+00    8.000000e+00    2.590642e+03
    1.772654e+01    3.125667e+00    4.000000e+00    4.039106e+03
    2.161991e+01    3.629295e+00    4.000000e+00   -4.516199e+04
    2.200000e+01    0.000000e+00    4.000000e+00    1.014783e+04
    1.800000e+01    0.000000e+00    4.000000e+00    1.327754e+04
    1.772654e+01    3.125667e+00    0.000000e+00    4.039106e+03
    2.161991e+01    3.629295e+00    0.000000e+00   -4.516199e+04
    2.200000e+01    0.000000e+00    0.000000e+00    1.014783e+04
    1.800000e+01    0.000000e+00    0.000000e+00    1.327754e+04
   -4.980973e+01    4.357787e+00    5.600000e+01    5.732727e+04
   -4.573892e+01    4.102273e+00    5.600000e+01    3.830703e+03
   -4.600000e+01    0.000000e+00    5.600000e+01    5.288235e+02
   -5.000000e+01    0.000000e+00    5.600000e+01    4.289261e+03
   -4.980973e+01    4.357787e+00    5.200000e+01    4.347502e+04
   -4.573892e+01    4.102273e+00    5.200000e+01    4.179618e+03
   -4.600000e+01    0.000000e+00    5.200000e+01    1.154427e+03
   -5.000000e+01    0.000000e+00    5.200000e+01    4.098180e+03
   -4.980973e+01    4.357787e+00    4.800000e+01    3.344544e+04
   -4.573892e+01    4.102273e+00    4.800000e+01    3.867549e+03
   -4.600000e+01    0.000000e+00    4.800000e+01    1.137385e+03
   -5.000000e+01    0.000000e+00    4.800000e+01    3.385756e+03
   -4.980973e+01    4.357787e+00    4.400000e+01    2.509238e+04
   -4.573892e+01    4.102273e+00    4.400000e+01    3.284585e+03
   -4.600000e+01    0.000000e+00    4.400000e+01    9.669719e+02
   -5.000000e+01    0.000000e+00    4.400000e+01    2.610004e+03
   -4.980973e+01    4.357787e+00    4.000000e+01    1.749521e+04
   -4.573892e+01    4.102273e+00    4.000000e+01    2.646214e+03
   -4.600000e+01    0.000000e+00    4.000000e+01    7.488590e+02
   -5.000000e+01    0.000000e+00    4.000000e+01    1.855235e+03
   -4.980973e+01    4.357787e+00    3.600000e+01    1.034846e+04
   -4.573892e+01    4.102273e+00    3.600000e+01    2.009357e+03
   -4.600000e+01    0.000000e+00    3.600000e+01    5.171996e+02
   -5.000000e+01    0.000000e+00    3.600000e+01    1.130169e+03
   -4.980973e+01    4.357787e+00    3.200000e+01    3.510674e+03
   -4.573892e+01    4.102273e+00    3.200000e+01    1.372533e+03
   -4.600000e+01    0.000000e+00    3.200000e+01    2.724792e+02
   -5.000000e+01    0.000000e+00    3.200000e+01    4.229657e+02
   -4.980973e+01    4.357787e+00    2.800000e+01   -3.091865e+03
   -4.573892e+01    4.102273e+00    2.800000e+01    7.091020e+02
   -4.600000e+01    0.000000e+00    2.800000e+01    1.694604e+00
   -5.000000e+01    0.000000e+00    2.800000e+01   -2.865886e+02
   -4.980973e+01    4.357787e+00    2.400000e+01   -9.493685e+03
   -4.573892e+01    4.102273e+00    2.400000e+01   -2.309073e+01
   -4.600000e+01    0.000000e+00    2.400000e+01   -3.176006e+02
   -5.000000e+01    0.000000e+00    2.400000e+01   -1.024158e+03
   -4.980973e+01    4.357787e+00    2.000000e+01   -1.569021e+04
   -4.573892e+01    4.102273e+00    2.000000e+01   -8.801019e+02
   -4.600000e+01    0.000000e+00    2.000000e+01   -7.186967e+02
   -5.000000e+01    0.000000e+00    2.000000e+01   -1.822573e+03
   -4.980973e+01    4.357787e+00    1.600000e+01   -2.164038e+04
   -4.573892e+01    4.102273e+00    1.600000e+01   -1.934885e+03
   -4.600000e+01    0.000000e+00    1.600000e+01   -1.253895e+03
   -5.000000e+01    0.000000e+00    1.600000e+01   -2.726298e+03
   -4.980973e+01    4.357787e+00    1.200000e+01   -2.729518e+04
   -4.573892e+01    4.102273e+00    1.200000e+01   -3.279784e+03
   -4.600000e+01    0.000000e+00    1.200000e+01   -2.013939e+03
   -5.000000e+01    0.000000e+00    1.200000e+01   -3.818835e+03
   -4.980973e+01    4.357787e+00    8.000000e+00   -3.231825e+04
   -4.573892e+01    4.102273e+00    8.000000e+00   -5.037912e+03
   -4.600000e+01    0.000000e+00    8.000000e+00   -3.192341e+03
   -5.000000e+01    0.000000e+00    8.000000e+00   -5.170933e+03
   -4.980973e+01    4.357787e+00    4.000000e+00   -3.323023e+04
   -4.573892e+01    4.102273e+00    4.000000e+00   -7.934236e+03
   -4.600000e+01    0.000000e+00    4.000000e+00   -5.416275e+03
   -5.000000e+01    0.000000e+00    4.000000e+00   -7.660282e+03
   -4.980973e+01    4.357787e+00    0.000000e+00   -3.323023e+04
   -4.573892e+01    4.102273e+00    0.000000e+00   -7.934236e+03
   -4.600000e+01    0.000000e+00    0.000000e+00   -5.416275e+03
   -5.000000e+01    0.000000e+00    0.000000e+00   -7.660282e+03
    4.600000e+01    0.000000e+00    5.600000e+01   -1.607846e+04
    4.571434e+01    4.109567e+00    5.600000e+01    3.979676e+03
    4.980973e+01    4.357787e+00    5.600000e+01   -4.625201e+04
    5.000000e+01    0.000000e+00    5.600000e+01   -2.485359e+04
    4.600000e+01    0.000000e+00    5.200000e+01   -1.106068e+04
    4.571434e+01    4.109567e+00    5.200000e+01    4.202220e+03
    4.980973e+01    4.357787e+00    5.200000e+01   -3.440837e+04
    5.000000e+01    0.000000e+00    5.200000e+01   -1.907550e+04
    4.600000e+01    0.000000e+00    4.800000e+01   -7.932584e+03
    4.571434e+01    4.109567e+00    4.800000e+01    3.764586e+03
    4.980973e+01    4.357787e+00    4.800000e+01   -2.655192e+04
    5.000000e+01    0.000000e+00    4.800000e+01   -1.466273e+04
    4.600000e+01    0.000000e+00    4.400000e+01   -5.552793e+03
    4.571434e+01    4.109567e+00    4.400000e+01    3.143467e+03
    4.980973e+01    4.357787e+00    4.400000e+01   -2.006986e+04
    5.000000e+01    0.000000e+00    4.400000e+01   -1.093823e+04
    4.600000e+01    0.000000e+00    4.000000e+01   -3.535382e+03
    4.571434e+01    4.109567e+00    4.000000e+01    2.486424e+03
    4.980973e+01    4.357787e+00    4.000000e+01   -1.422795e+04
    5.000000e+01    0.000000e+00    4.000000e+01   -7.508637e+03
    4.600000e+01    0.000000e+00    3.600000e+01   -1.724365e+03
    4.571434e+01    4.109567e+00    3.600000e+01    1.838252e+03
    4.980973e+01    4.357787e+00    3.600000e+01   -8.744657e+03
    5.000000e+01    0.000000e+00    3.600000e+01   -4.261399e+03
    4.600000e+01    0.000000e+00    3.200000e+01   -3.033745e+01
    4.571434e+01    4.109567e+00    3.200000e+01    1.199938e+03
    4.980973e+01    4.357787e+00    3.200000e+01   -3.521876e+03
    5.000000e+01    0.000000e+00    3.200000e+01   -1.136773e+03
    4.600000e+01    0.000000e+00    2.800000e+01    1.609333e+03
    4.571434e+01    4.109567e+00    2.800000e+01    5.540721e+02
    4.980973e+01    4.357787e+00    2.800000e+01    1.473493e+03
    5.000000e+01    0.000000e+00    2.800000e+01    1.899333e+03
    4.600000e+01    0.000000e+00    2.400000e+01    3.248137e+03
    4.571434e+01    4.109567e+00    2.400000e+01   -1.276016e+02
    4.980973e+01    4.357787e+00    2.400000e+01    6.239558e+03
    5.000000e+01    0.000000e+00    2.400000e+01    4.864041e+03
    4.600000e+01    0.000000e+00    2.000000e+01    4.947609e+03
    4.571434e+01    4.109567e+00    2.000000e+01   -8.822012e+02
    4.980973e+01    4.357787e+00    2.000000e+01    1.075309e+04
    5.000000e+01    0.000000e+00    2.000000e+01    7.751005e+03
    4.600000e+01    0.000000e+00    1.600000e+01    6.806738e+03
    4.571434e+01    4.109567e+00    1.600000e+01   -1.762990e+03
    4.980973e+01    4.357787e+00    1.600000e+01    1.499558e+04
    5.000000e+01    0.000000e+00    1.600000e+01    1.051874e+04
    4.600000e+01    0.000000e+00    1.200000e+01    9.020512e+03
    4.571434e+01    4.109567e+00    1.200000e+01   -2.829924e+03
    4.980973e+01    4.357787e+00    1.200000e+01    1.903705e+04
    5.000000e+01    0.000000e+00    1.200000e+01    1.304726e+04
    4.600000e+01    0.000000e+00    8.000000e+00    1.169548e+04
    4.571434e+01    4.109567e+00    8.000000e+00   -4.279804e+03
    4.980973e+01    4.357787e+00    8.000000e+00    2.294106e+04
    5.000000e+01    0.000000e+00    8.000000e+00    1.493720e+04
    4.600000e+01    0.000000e+00    4.000000e+00    1.590320e+04
    4.571434e+01    4.109567e+00    4.000000e+00   -6.023686e+03
    4.980973e+01    4.357787e+00    4.000000e+00    2.323855e+04
    5.000000e+01    0.000000e+00    4.000000e+00    1.590062e+04
    4.600000e+01    0.000000e+00    0.000000e+00    1.590320e+04
    4.571434e+01    4.109567e+00    0.000000e+00   -6.023686e+03
    4.980973e+01    4.357787e+00    0.000000e+00    2.323855e+04
    5.000000e+01    0.000000e+00    0.000000e+00    1.590062e+04
   -4.165214e+01    4.015303e+00    5.600000e+01    3.830703e+03
   -4.200000e+01    0.000000e+00    5.600000e+01   -3.275706e+03
   -4.165214e+01    4.015303e+00    5.200000e+01    4.179618e+03
   -4.200000e+01    0.000000e+00    5.200000e+01   -1.270950e+03
   -4.165214e+01    4.015303e+00    4.800000e+01    3.867549e+03
   -4.200000e+01    0.000000e+00    4.800000e+01   -4.396909e+02
   -4.165214e+01    4.015303e+00    4.400000e+01    3.284585e+03
   -4.200000e+01    0.000000e+00    4.400000e+01   -4.987942e+01
   -4.165214e+01    4.015303e+00    4.000000e+01    2.646214e+03
   -4.200000e+01    0.000000e+00    4.000000e+01    1.394262e+02
   -4.165214e+01    4.015303e+00    3.600000e+01    2.009357e+03
   -4.200000e+01    0.000000e+00    3.600000e+01    2.240044e+02
   -4.165214e+01    4.015303e+00    3.200000e+01    1.372533e+03
   -4.200000e+01    0.000000e+00    3.200000e+01    2.423443e+02
   -4.165214e+01    4.015303e+00    2.800000e+01    7.091020e+02
   -4.200000e+01    0.000000e+00    2.800000e+01    2.075812e+02
   -4.165214e+01    4.015303e+00    2.400000e+01   -2.309073e+01
   -4.200000e+01    0.000000e+00    2.400000e+01    1.171249e+02
   -4.165214e+01    4.015303e+00    2.000000e+01   -8.801019e+02
   -4.200000e+01    0.000000e+00    2.000000e+01   -4.553696e+01
   -4.165214e+01    4.015303e+00    1.600000e+01   -1.934885e+03
   -4.200000e+01    0.000000e+00    1.600000e+01   -3.107901e+02
   -4.165214e+01    4.015303e+00    1.200000e+01   -3.279784e+03
   -4.200000e+01    0.000000e+00    1.200000e+01   -7.471656e+02
   -4.165214e+01    4.015303e+00    8.000000e+00   -5.037912e+03
   -4.200000e+01    0.000000e+00    8.000000e+00   -1.511834e+03
   -4.165214e+01    4.015303e+00    4.000000e+00   -7.934236e+03
   -4.200000e+01    0.000000e+00    4.000000e+00   -2.499780e+03
   -4.165214e+01    4.015303e+00    0.000000e+00   -7.934236e+03
   -4.200000e+01    0.000000e+00    0.000000e+00   -2.499780e+03
    4.523563e+01    8.152204e+00    5.600000e+01    7.021997e+03
    4.924039e+01    8.682409e+00    5.600000e+01   -5.660753e+04
    4.523563e+01    8.152204e+00    5.200000e+01    6.964282e+03