TITLE="test case governed by poisson equation"
VARIABLES="x""y""z""U""V""W"
ZONE N=    2976,E=    1860,ET=BRICK,F=FEPOINT
    5.000000e+01    0.000000e+00    6.000000e+01    0.000000e+00    0.000000e+00    0.000000e+00
    4.980973e+01    4.357787e+00    6.000000e+01   -2.683315e-07    6.695426e-07   -4.787829e-07
    4.924039e+01    8.682409e+00    6.000000e+01   -6.069983e-07    1.180380e-06   -8.004489e-07
    4.829629e+01    1.294095e+01    6.000000e+01   -1.181791e-06    1.494719e-06   -1.167534e-06
    4.698463e+01    1.710101e+01    6.000000e+01   -1.743102e-06    1.593281e-06   -1.584616e-06
    4.531539e+01    2.113091e+01    6.000000e+01   -2.116849e-06    1.581670e-06   -2.076129e-06
    4.330127e+01    2.500000e+01    6.000000e+01   -2.266794e-06    1.564721e-06   -2.630656e-06
    4.095760e+01    2.867882e+01    6.000000e+01   -2.208216e-06    1.613907e-06   -3.238564e-06
    3.830222e+01    3.213938e+01    6.000000e+01   -1.980238e-06    1.774661e-06   -3.887658e-06
    3.535534e+01    3.535534e+01    6.000000e+01   -1.636395e-06    2.067055e-06   -4.562185e-06
    3.213938e+01    3.830222e+01    6.000000e+01   -1.234621e-06    2.488332e-06   -5.243516e-06
    2.867882e+01    4.095760e+01    6.000000e+01   -8.294470e-07    3.016608e-06   -5.911207e-06
    2.500000e+01    4.330127e+01    6.000000e+01   -4.663051e-07    3.615541e-06   -6.544099e-06
    2.113091e+01    4.531539e+01    6.000000e+01   -1.778466e-07    4.239496e-06   -7.121382e-06
    1.710101e+01    4.698463e+01    6.000000e+01    1.791220e-08    4.838827e-06   -7.623603e-06
    1.294095e+01    4.829629e+01    6.000000e+01    1.178004e-07    5.364955e-06   -8.033561e-06
    8.682409e+00    4.924039e+01    6.000000e+01    1.322818e-07    5.774909e-06   -8.337059e-06
    4.357787e+00    4.980973e+01    6.000000e+01    8.309475e-08    6.035127e-06   -8.523514e-06
    0.000000e+00    5.000000e+01    6.000000e+01   -5.011690e-12    6.124297e-06   -8.586399e-06
   -4.357787e+00    4.980973e+01    6.000000e+01   -8.310346e-08    6.035114e-06   -8.523508e-06
   -8.682409e+00    4.924039e+01    6.000000e+01   -1.322873e-07    5.774886e-06   -8.337046e-06
   -1.294095e+01    4.829629e+01    6.000000e+01   -1.178010e-07    5.364927e-06   -8.033542e-06
   -1.710101e+01    4.698463e+01    6.000000e+01   -1.790704e-08    4.838800e-06   -7.623579e-06
   -2.113091e+01    4.531539e+01    6.000000e+01    1.778582e-07    4.239479e-06   -7.121352e-06
   -2.500000e+01    4.330127e+01    6.000000e+01    4.663199e-07    3.615542e-06   -6.544063e-06
   -2.867882e+01    4.095760e+01    6.000000e+01    8.294549e-07    3.016638e-06   -5.911169e-06
   -3.213938e+01    3.830222e+01    6.000000e+01    1.234606e-06    2.488402e-06   -5.243480e-06
   -3.535534e+01    3.535534e+01    6.000000e+01    1.636339e-06    2.067169e-06   -4.562157e-06
   -3.830222e+01    3.213938e+01    6.000000e+01    1.980122e-06    1.774818e-06   -3.887641e-06
   -4.095760e+01    2.867882e+01    6.000000e+01    2.208031e-06    1.614082e-06   -3.238551e-06
   -4.330127e+01    2.500000e+01    6.000000e+01    2.266543e-06    1.564883e-06   -2.630649e-06
   -4.531539e+01    2.113091e+01    6.000000e+01    2.116554e-06    1.581777e-06   -2.076123e-06
   -4.698463e+01    1.710101e+01    6.000000e+01    1.742819e-06    1.593310e-06   -1.584617e-06
   -4.829629e+01    1.294095e+01    6.000000e+01    1.181661e-06    1.494688e-06   -1.167488e-06
   -4.924039e+01    8.682409e+00    6.000000e+01    6.070363e-07    1.180413e-06   -8.004003e-07
   -4.980973e+01    4.357787e+00    6.000000e+01    2.679693e-07    6.695357e-07   -4.788502e-07
   -5.000000e+01    0.000000e+00    6.000000e+01    0.000000e+00    0.000000e+00    0.000000e+00
   -4.600000e+01    0.000000e+00    6.000000e+01    0.000000e+00    0.000000e+00    0.000000e+00
   -4.200000e+01    0.000000e+00    6.000000e+01    0.000000e+00    0.000000e+00    0.000000e+00
   -3.800000e+01    0.000000e+00    6.000000e+01    0.000000e+00    0.000000e+00    0.000000e+00
   -3.400000e+01    0.000000e+00    6.000000e+01    0.000000e+00    0.000000e+00    0.000000e+00
   -3.000000e+01    0.000000e+00    6.000000e+01    0.000000e+00    0.000000e+00    0.000000e+00
   -2.600000e+01    0.000000e+00    6.000000e+01    0.000000e+00    0.000000e+00    0.000000e+00
   -2.200000e+01    0.000000e+00    6.000000e+01    0.000000e+00    0.000000e+00    0.000000e+00
   -1.800000e+01    0.000000e+00    6.000000e+01    0.000000e+00    0.000000e+00    0.000000e+00
   -1.772654e+01    3.125667e+00    6.000000e+01   -9.242921e-07   -8.818117e-07    2.402992e-06
   -1.691447e+01    6.156363e+00    6.000000e+01   -2.014246e-06   -1.207416e-06    4.270695e-06
   -1.558846e+01    9.000000e+00    6.000000e+01   -2.686877e-06   -1.271213e-06    5.916431e-06
   -1.378880e+01    1.157018e+01    6.000000e+01   -2.940725e-06   -1.219681e-06    7.304639e-06
   -1.157018e+01    1.378880e+01    6.000000e+01   -2.801991e-06   -1.171335e-06    8.432556e-06
   -9.000000e+00    1.558846e+01    6.000000e+01   -2.330436e-06   -1.166679e-06    9.284962e-06
   -6.156363e+00    1.691447e+01    6.000000e+01   -1.646787e-06   -1.200232e-06    9.880454e-06
   -3.125667e+00    1.772654e+01    6.000000e+01   -8.474524e-07   -1.242066e-06    1.023222e-05
    0.000000e+00    1.800000e+01    6.000000e+01   -7.186053e-11   -1.260380e-06    1.034858e-05
    3.125667e+00    1.772654e+01    6.000000e+01    8.473085e-07   -1.242081e-06    1.023222e-05
    6.156363e+00    1.691447e+01    6.000000e+01    1.646637e-06   -1.200262e-06    9.880452e-06
    9.000000e+00    1.558846e+01    6.000000e+01    2.330287e-06   -1.166716e-06    9.284967e-06
    1.157018e+01    1.378880e+01    6.000000e+01    2.801842e-06   -1.171376e-06    8.432570e-06
    1.378880e+01    1.157018e+01    6.000000e+01    2.940616e-06   -1.219717e-06    7.304676e-06
    1.558846e+01    9.000000e+00    6.000000e+01    2.686883e-06   -1.271213e-06    5.916517e-06
    1.691447e+01    6.156363e+00    6.000000e+01    2.014726e-06   -1.207176e-06    4.270987e-06
    1.772654e+01    3.125667e+00    6.000000e+01    9.246831e-07   -8.815816e-07    2.403891e-06
    1.800000e+01    0.000000e+00    6.000000e+01    0.000000e+00    0.000000e+00    0.000000e+00
    2.200000e+01    0.000000e+00    6.000000e+01    0.000000e+00    0.000000e+00    0.000000e+00
    2.600000e+01    0.000000e+00    6.000000e+01    0.000000e+00    0.000000e+00    0.000000e+00
    3.000000e+01    0.000000e+00    6.000000e+01    0.000000e+00    0.000000e+00    0.000000e+00
    3.400000e+01    0.000000e+00    6.000000e+01    0.000000e+00    0.000000e+00    0.000000e+00
    3.800000e+01    0.000000e+00    6.000000e+01    0.000000e+00    0.000000e+00    0.000000e+00
    4.200000e+01    0.000000e+00    6.000000e+01    0.000000e+00    0.000000e+00    0.000000e+00
    4.600000e+01    0.000000e+00    6.000000e+01    0.000000e+00    0.000000e+00    0.000000e+00
   -2.473863e+01    8.000000e+00    6.000000e+01   -1.729330e-06   -1.234409e-06    2.047418e-06
   -2.886174e+01    8.000000e+00    6.000000e+01   -9.641031e-07   -3.384063e-07    8.790063e-07
   -3.298485e+01    8.000000e+00    6.000000e+01   -5.511130e-07   -6.461716e-08    2.983891e-07
   -3.710795e+01    8.000000e+00    6.000000e+01   -2.536675e-07    8.810405e-08   -3.100521e-08
   -4.123106e+01    8.000000e+00    6.000000e+01    1.421396e-07    5.814036e-07   -5.448418e-07
   -4.038926e+01    1.151989e+01    6.000000e+01    9.156112e-07    8.986932e-07   -1.262833e-06
   -3.924756e+01    1.495423e+01    6.000000e+01    1.479949e-06    1.123264e-06   -1.845428e-06
   -3.781444e+01    1.827754e+01    6.000000e+01    1.912042e-06    1.350018e-06   -2.402130e-06
   -3.610053e+01    2.146513e+01    6.000000e+01    2.186672e-06    1.606642e-06   -2.934419e-06
   -3.411856e+01    2.449334e+01    6.000000e+01    2.303150e-06    1.909631e-06   -3.443751e-06
   -3.188326e+01    2.733967e+01    6.000000e+01    2.278178e-06    2.268865e-06   -3.928881e-06
   -2.941121e+01    2.998300e+01    6.000000e+01    2.139390e-06    2.685965e-06   -4.387661e-06
   -2.672078e+01    3.240370e+01    6.000000e+01    1.919242e-06    3.153718e-06   -4.816811e-06
   -2.383193e+01    3.458380e+01    6.000000e+01    1.650348e-06    3.656701e-06   -5.212184e-06
   -2.076613e+01    3.650709e+01    6.000000e+01    1.361855e-06    4.172896e-06   -5.569005e-06
   -1.754613e+01    3.815931e+01    6.000000e+01    1.076953e-06    4.675918e-06   -5.882206e-06
   -1.419585e+01    3.952819e+01    6.000000e+01    8.114420e-07    5.137558e-06   -6.146759e-06
   -1.074016e+01    4.060356e+01    6.000000e+01    5.733032e-07    5.530399e-06   -6.358004e-06
   -7.204722e+00    4.137743e+01    6.000000e+01    3.631488e-07    5.830240e-06   -6.511967e-06
   -3.615785e+00    4.184407e+01    6.000000e+01    1.753946e-07    6.018174e-06   -6.605615e-06
    0.000000e+00    4.200000e+01    6.000000e+01    3.143830e-12    6.082194e-06   -6.637046e-06
    3.615785e+00    4.184407e+01    6.000000e+01   -1.753890e-07    6.018185e-06   -6.605616e-06
    7.204722e+00    4.137743e+01    6.000000e+01   -3.631455e-07    5.830260e-06   -6.511968e-06
    1.074016e+01    4.060356e+01    6.000000e+01   -5.733050e-07    5.530425e-06   -6.358006e-06
    1.419585e+01    3.952819e+01    6.000000e+01   -8.114529e-07    5.137588e-06   -6.146762e-06
    1.754613e+01    3.815931e+01    6.000000e+01   -1.076977e-06    4.675950e-06   -5.882206e-06
    2.076613e+01    3.650709e+01    6.000000e+01   -1.361894e-06    4.172930e-06   -5.568998e-06
    2.383193e+01    3.458380e+01    6.000000e+01   -1.650405e-06    3.656730e-06   -5.212171e-06
    2.672078e+01    3.240370e+01    6.000000e+01   -1.919324e-06    3.153728e-06   -4.816797e-06
    2.941121e+01    2.998300e+01    6.000000e+01   -2.139504e-06    2.685940e-06   -4.387654e-06
    3.188326e+01    2.733967e+01    6.000000e+01   -2.278337e-06    2.268788e-06   -3.928894e-06
    3.411856e+01    2.449334e+01    6.000000e+01   -2.303354e-06    1.909496e-06   -3.443794e-06
    3.610053e+01    2.146513e+01    6.000000e+01   -2.186921e-06    1.606436e-06   -2.934508e-06
    3.781444e+01    1.827754e+01    6.000000e+01   -1.912325e-06    1.349741e-06   -2.402280e-06
    3.924756e+01    1.495423e+01    6.000000e+01   -1.480234e-06    1.122934e-06   -1.845644e-06
    4.038926e+01    1.151989e+01    6.000000e+01   -9.158139e-07    8.982793e-07   -1.263137e-06
    4.123106e+01    8.000000e+00    6.000000e+01   -1.420336e-07    5.813656e-07   -5.447481e-07
    3.710795e+01    8.000000e+00    6.000000e+01    2.532092e-07    8.789213e-08   -3.048320e-08
    3.298485e+01    8.000000e+00    6.000000e+01    5.511569e-07   -6.470064e-08    2.985589e-07
    2.886174e+01    8.000000e+00    6.000000e+01    9.652769e-07   -3.390986e-07    8.794635e-07
    2.473863e+01    8.000000e+00    6.000000e+01    1.728868e-06   -1.234359e-06    2.047736e-06
    2.291017e+01    1.229325e+01    6.000000e+01    2.692676e-06   -1.554969e-06    3.699063e-06
    2.034373e+01    1.619051e+01    6.000000e+01    2.733699e-06   -1.368110e-06    5.243755e-06
    1.712198e+01    1.956624e+01    6.000000e+01    2.315321e-06   -1.228729e-06    6.700479e-06
    1.334870e+01    2.231171e+01    6.000000e+01    1.672221e-06   -1.299723e-06    7.946599e-06
    9.145430e+00    2.433847e+01    6.000000e+01    1.021232e-06   -1.521474e-06    8.905171e-06
    4.647568e+00    2.558125e+01    6.000000e+01    4.677860e-07   -1.748187e-06    9.508974e-06
    0.000000e+00    2.600000e+01    6.000000e+01   -5.639385e-11   -1.841967e-06    9.715204e-06
   -4.647568e+00    2.558125e+01    6.000000e+01   -4.679038e-07   -1.748167e-06    9.508969e-06
   -9.145430e+00    2.433847e+01    6.000000e+01   -1.021362e-06   -1.521439e-06    8.905162e-06
   -1.334870e+01    2.231171e+01    6.000000e+01   -1.672372e-06   -1.299686e-06    7.946586e-06
   -1.712198e+01    1.956624e+01    6.000000e+01   -2.315491e-06   -1.228707e-06    6.700461e-06
   -2.034373e+01    1.619051e+01    6.000000e+01   -2.733898e-06   -1.368125e-06    5.243723e-06
   -2.291017e+01    1.229325e+01    6.000000e+01   -2.692776e-06   -1.555058e-06    3.698966e-06
   -2.163875e+01    3.628618e+00    6.000000e+01   -1.108180e-06   -1.067706e-06    1.471034e-06
    2.161991e+01    3.629295e+00    6.000000e+01    1.109191e-06   -1.068584e-06    1.474931e-06
   -4.573892e+01    4.102273e+00    6.000000e+01    4.344914e-08    4.919244e-07   -3.716188e-07
    4.571434e+01    4.109567e+00    6.000000e+01   -4.296815e-08    4.919568e-07   -3.718183e-07
   -4.165214e+01    4.015303e+00    6.000000e+01   -1.560356e-07    2.871050e-07   -2.267532e-07
    4.523563e+01    8.152204e+00    6.000000e+01   -4.114643e-07    9.457032e-07   -7.191394e-07
    4.437674e+01    1.211971e+01    6.000000e+01   -1.040853e-06    1.206612e-06   -1.166248e-06
    4.315033e+01    1.594729e+01    6.000000e+01   -1.620727e-06    1.344220e-06   -1.678558e-06
    4.160183e+01    1.963603e+01    6.000000e+01   -2.029889e-06    1.444905e-06   -2.205639e-06
    3.973977e+01    2.317461e+01    6.000000e+01   -2.246063e-06    1.561923e-06   -2.751692e-06
    3.757867e+01    2.653596e+01    6.000000e+01   -2.275644e-06    1.737536e-06   -3.312594e-06
    3.513408e+01    2.969708e+01    6.000000e+01   -2.147930e-06    1.999018e-06   -3.881905e-06
    3.242410e+01    3.263458e+01    6.000000e+01   -1.904130e-06    2.356914e-06   -4.450581e-06
    2.946928e+01    3.532560e+01    6.000000e+01   -1.590077e-06    2.805822e-06   -5.007551e-06
    2.629204e+01    3.775009e+01    6.000000e+01   -1.249799e-06    3.326677e-06   -5.540535e-06
    2.291615e+01    3.988993e+01    6.000000e+01   -9.209240e-07    3.889921e-06   -6.036629e-06
    1.936715e+01    4.172848e+01    6.000000e+01   -6.316906e-07    4.459111e-06   -6.482832e-06
    1.567232e+01    4.325198e+01    6.000000e+01   -3.991305e-07    4.994859e-06   -6.866932e-06
    1.185889e+01    4.444924e+01    6.000000e+01   -2.288070e-07    5.458894e-06   -7.178111e-06
    7.955883e+00    4.531076e+01    6.000000e+01   -1.157765e-07    5.817277e-06   -7.407198e-06
    3.993184e+00    4.583030e+01    6.000000e+01   -4.620849e-08    6.043522e-06   -7.547457e-06
    0.000000e+00    4.600405e+01    6.000000e+01   -8.730323e-13    6.120861e-06   -7.594714e-06
   -3.993184e+00    4.583030e+01    6.000000e+01    4.620705e-08    6.043509e-06   -7.547453e-06
   -7.955646e+00    4.531081e+01    6.000000e+01    1.157700e-07    5.817273e-06   -7.407204e-06
   -1.185862e+01    4.444932e+01    6.000000e+01    2.287960e-07    5.458894e-06   -7.178121e-06
   -1.567211e+01    4.325205e+01    6.000000e+01    3.991176e-07    4.994858e-06   -6.866939e-06
   -1.936793e+01    4.172808e+01    6.000000e+01    6.317439e-07    4.458968e-06   -6.482722e-06
   -2.291897e+01    3.988821e+01    6.000000e+01    9.211718e-07    3.889450e-06   -6.036214e-06
   -2.629731e+01    3.774624e+01    6.000000e+01    1.250326e-06    3.325821e-06   -5.539666e-06
   -2.947697e+01    3.531904e+01    6.000000e+01    1.590853e-06    2.804662e-06   -5.006150e-06
   -3.243381e+01    3.262479e+01    6.000000e+01    1.905000e-06    2.355634e-06   -4.448618e-06
   -3.514428e+01    2.968480e+01    6.000000e+01    2.148531e-06    1.997938e-06   -3.879612e-06
   -3.759023e+01    2.651936e+01    6.000000e+01    2.275700e-06    1.736623e-06   -3.309713e-06
   -3.975154e+01    2.315402e+01    6.000000e+01    2.245099e-06    1.561260e-06   -2.748387e-06
   -4.161308e+01    1.961149e+01    6.000000e+01    2.027518e-06    1.444348e-06   -2.201996e-06
   -4.315985e+01    1.592045e+01    6.000000e+01    1.616994e-06    1.343459e-06   -1.674860e-06
   -4.438299e+01    1.209670e+01    6.000000e+01    1.037028e-06    1.205406e-06   -1.163246e-06
   -4.524409e+01    8.137423e+00    6.000000e+01    4.100251e-07    9.446506e-07   -7.178072e-07
   -2.076586e+01    7.239084e+00    6.000000e+01   -2.021979e-06   -1.473215e-06    2.971138e-06
   -1.923903e+01    1.070065e+01    6.000000e+01   -2.645372e-06   -1.435293e-06    4.507392e-06
   -1.706956e+01    1.390049e+01    6.000000e+01   -2.844409e-06   -1.321330e-06    5.987554e-06
   -1.435218e+01    1.669166e+01    6.000000e+01   -2.561746e-06   -1.244132e-06    7.272967e-06
   -1.117956e+01    1.896378e+01    6.000000e+01   -2.002232e-06   -1.290855e-06    8.325772e-06
   -7.653899e+00    2.064061e+01    6.000000e+01   -1.333057e-06   -1.432007e-06    9.105285e-06
   -3.887942e+00    2.166817e+01    6.000000e+01   -6.566989e-07   -1.575301e-06    9.584548e-06
    0.000000e+00    2.201434e+01    6.000000e+01   -6.384517e-11   -1.634529e-06    9.746277e-06
    3.887962e+00    2.166817e+01    6.000000e+01    6.565706e-07   -1.575319e-06    9.584546e-06
    7.653766e+00    2.064067e+01    6.000000e+01    1.332892e-06   -1.432047e-06    9.105308e-06
    1.117939e+01    1.896389e+01    6.000000e+01    2.002043e-06   -1.290903e-06    8.325813e-06
    1.435153e+01    1.669225e+01    6.000000e+01    2.561475e-06   -1.244168e-06    7.273212e-06
    1.706858e+01    1.390179e+01    6.000000e+01    2.844191e-06   -1.321303e-06    5.988088e-06
    1.923739e+01    1.070385e+01    6.000000e+01    2.645630e-06   -1.435227e-06    4.508746e-06
    2.075951e+01    7.244071e+00    6.000000e+01    2.023473e-06   -1.473630e-06    2.974863e-06
   -3.761756e+01    4.010140e+00    6.000000e+01   -2.984081e-07    5.007370e-08   -4.910301e-08
   -3.355935e+01    4.010137e+00    6.000000e+01   -4.830829e-07   -9.411017e-08    1.726162e-07
   -2.953620e+01    4.010619e+00    6.000000e+01   -7.934026e-07   -3.345022e-07    4.731325e-07
   -2.554584e+01    3.954124e+00    6.000000e+01   -1.031321e-06   -7.627474e-07    9.508539e-07
    2.551887e+01    3.953839e+00    6.000000e+01    1.033217e-06   -7.651814e-07    9.544201e-07
    4.162606e+01    4.017016e+00    6.000000e+01    1.569242e-07    2.858465e-07   -2.259137e-07
    3.756564e+01    4.010135e+00    6.000000e+01    3.003541e-07    4.799894e-08   -4.663208e-08
    2.949025e+01    4.010464e+00    6.000000e+01    7.968235e-07   -3.381240e-07    4.775631e-07
    3.352269e+01    4.010140e+00    6.000000e+01    4.850742e-07   -9.493709e-08    1.746471e-07
   -2.200000e+01    0.000000e+00    5.600000e+01    0.000000e+00    0.000000e+00    0.000000e+00
   -2.163875e+01    3.628618e+00    5.600000e+01   -4.907837e-07   -3.011893e-07    1.241337e-06
   -1.772654e+01    3.125667e+00    5.600000e+01   -3.624871e-07   -6.240046e-08    1.988348e-06
   -1.800000e+01    0.000000e+00    5.600000e+01    0.000000e+00    0.000000e+00    0.000000e+00
   -2.200000e+01    0.000000e+00    5.200000e+01    0.000000e+00    0.000000e+00    0.000000e+00
   -2.163875e+01    3.628618e+00    5.200000e+01   -2.365355e-07   -1.560800e-07    1.236478e-06
   -1.772654e+01    3.125667e+00    5.200000e+01   -1.646928e-07   -6.735539e-08    1.884268e-06
   -1.800000e+01    0.000000e+00    5.200000e+01    0.000000e+00    0.000000e+00    0.000000e+00
   -2.200000e+01    0.000000e+00    4.800000e+01    0.000000e+00    0.000000e+00    0.000000e+00
   -2.163875e+01    3.628618e+00    4.800000e+01   -1.180961e-07   -9.331645e-08    1.244537e-06
   -1.772654e+01    3.125667e+00    4.800000e+01   -7.470941e-08   -5.771618e-08    1.821425e-06
   -1.800000e+01    0.000000e+00    4.800000e+01    0.000000e+00    0.000000e+00    0.000000e+00
   -2.200000e+01    0.000000e+00    4.400000e+01    0.000000e+00    0.000000e+00    0.000000e+00
   -2.163875e+01    3.628618e+00    4.400000e+01   -6.018934e-08   -6.040489e-08    1.249021e-06
   -1.772654e+01    3.125667e+00    4.400000e+01   -3.139839e-08   -5.341246e-08    1.784551e-06
   -1.800000e+01    0.000000e+00    4.400000e+01    0.000000e+00    0.000000e+00    0.000000e+00
   -2.200000e+01    0.000000e+00    4.000000e+01    0.000000e+00    0.000000e+00    0.000000e+00
   -2.163875e+01    3.628618e+00    4.000000e+01   -3.055681e-08   -3.816563e-08    1.252427e-06
   -1.772654e+01    3.125667e+00    4.000000e+01   -1.178130e-08   -4.166107e-08    1.764435e-06
   -1.800000e+01    0.000000e+00    4.000000e+01    0.000000e+00    0.000000e+00    0.000000e+00
   -2.200000e+01    0.000000e+00    3.600000e+01    0.000000e+00    0.000000e+00    0.000000e+00
   -2.163875e+01    3.628618e+00    3.600000e+01   -1.448495e-08   -2.117224e-08    1.254958e-06
   -1.772654e+01    3.125667e+00    3.600000e+01   -3.750330e-09   -2.615801e-08    1.754590e-06
   -1.800000e+01    0.000000e+00    3.600000e+01    0.000000e+00    0.000000e+00    0.000000e+00
   -2.200000e+01    0.000000e+00    3.200000e+01    0.000000e+00    0.000000e+00    0.000000e+00
   -2.163875e+01    3.628618e+00    3.200000e+01   -4.285569e-09   -6.783423e-09    1.256356e-06
   -1.772654e+01    3.125667e+00    3.200000e+01   -7.854209e-10   -8.863737e-09    1.750777e-06
   -1.800000e+01    0.000000e+00    3.200000e+01    0.000000e+00    0.000000e+00    0.000000e+00
   -2.200000e+01    0.000000e+00    2.800000e+01    0.000000e+00    0.000000e+00    0.000000e+00
   -2.163875e+01    3.628618e+00    2.800000e+01    4.285569e-09    6.783423e-09    1.256356e-06
   -1.772654e+01    3.125667e+00    2.800000e+01    7.854209e-10    8.863737e-09    1.750777e-06
   -1.800000e+01    0.000000e+00    2.800000e+01    0.000000e+00    0.000000e+00    0.000000e+00
   -2.200000e+01    0.000000e+00    2.400000e+01    0.000000e+00    0.000000e+00    0.000000e+00
   -2.163875e+01    3.628618e+00    2.400000e+01    1.448495e-08    2.117224e-08    1.254958e-06
   -1.772654e+01    3.125667e+00    2.400000e+01    3.750330e-09    2.615801e-08    1.754590e-06
   -1.800000e+01    0.000000e+00    2.400000e+01    0.000000e+00    0.000000e+00    0.000000e+00
   -2.200000e+01    0.000000e+00    2.000000e+01    0.000000e+00    0.000000e+00    0.000000e+00
   -2.163875e+01    3.628618e+00    2.000000e+01    3.055681e-08    3.816563e-08    1.252427e-06
   -1.772654e+01    3.125667e+00    2.000000e+01    1.178130e-08    4.166107e-08    1.764435e-06
   -1.800000e+01    0.000000e+00    2.000000e+01    0.000000e+00    0.000000e+00    0.000000e+00
   -2.200000e+01    0.000000e+00    1.600000e+01    0.000000e+00    0.000000e+00    0.000000e+00
   -2.163875e+01    3.628618e+00    1.600000e+01    6.018934e-08    6.040489e-08    1.249021e-06
   -1.772654e+01    3.125667e+00    1.600000e+01    3.139839e-08    5.341246e-08    1.784551e-06
   -1.800000e+01    0.000000e+00    1.600000e+01    0.000000e+00    0.000000e+00    0.000000e+00
   -2.200000e+01    0.000000e+00    1.200000e+01    0.000000e+00    0.000000e+00    0.000000e+00
   -2.163875e+01    3.628618e+00    1.200000e+01    1.180961e-07    9.331645e-08    1.244537e-06
   -1.772654e+01    3.125667e+00    1.200000e+01    7.470941e-08    5.771618e-08    1.821425e-06
   -1.800000e+01    0.000000e+00    1.200000e+01    0.000000e+00    0.000000e+00    0.000000e+00
   -2.200000e+01    0.000000e+00    8.000000e+00    0.000000e+00    0.000000e+00    0.000000e+00
   -2.163875e+01    3.628618e+00    8.000000e+00    2.365355e-07    1.560800e-07    1.236478e-06
   -1.772654e+01    3.125667e+00    8.000000e+00    1.646928e-07    6.735539e-08    1.884268e-06
   -1.800000e+01    0.000000e+00    8.000000e+00    0.000000e+00    0.000000e+00    0.000000e+00
   -2.200000e+01    0.000000e+00    4.000000e+00    0.000000e+00    0.000000e+00    0.000000e+00
   -2.163875e+01    3.628618e+00    4.000000e+00    4.907837e-07    3.011893e-07    1.241337e-06
   -1.772654e+01    3.125667e+00    4.000000e+00    3.624871e-07    6.240046e-08    1.988348e-06
   -1.800000e+01    0.000000e+00    4.000000e+00    0.000000e+00    0.000000e+00    0.000000e+00
   -2.200000e+01    0.000000e+00    0.000000e+00    0.000000e+00    0.000000e+00    0.000000e+00
   -2.163875e+01    3.628618e+00    0.000000e+00    1.108180e-06    1.067706e-06    1.471034e-06
   -1.772654e+01    3.125667e+00    0.000000e+00    9.242921e-07    8.818117e-07    2.402992e-06
   -1.800000e+01    0.000000e+00    0.000000e+00    0.000000e+00    0.000000e+00    0.000000e+00
    1.772654e+01    3.125667e+00    5.600000e+01    3.624236e-07   -6.214457e-08    1.988639e-06
    2.161991e+01    3.629295e+00    5.600000e+01    4.909555e-07   -3.010999e-07    1.245132e-06
    2.200000e+01    0.000000e+00    5.600000e+01    0.000000e+00    0.000000e+00    0.000000e+00
    1.800000e+01    0.000000e+00    5.600000e+01    0.000000e+00    0.000000e+00    0.000000e+00
    1.772654e+01    3.125667e+00    5.200000e+01    1.646838e-07   -6.725842e-08    1.884445e-06
    2.161991e+01    3.629295e+00    5.200000e+01    2.365844e-07   -1.560675e-07    1.239977e-06
    2.200000e+01    0.000000e+00    5.200000e+01    0.000000e+00    0.000000e+00    0.000000e+00
    1.800000e+01    0.000000e+00    5.200000e+01    0.000000e+00    0.000000e+00    0.000000e+00
    1.772654e+01    3.125667e+00    4.800000e+01    7.471801e-08   -5.766380e-08    1.821594e-06
    2.161991e+01    3.629295e+00    4.800000e+01    1.181124e-07   -9.338662e-08    1.247777e-06
    2.200000e+01    0.000000e+00    4.800000e+01    0.000000e+00    0.000000e+00    0.000000e+00
    1.800000e+01    0.000000e+00    4.800000e+01    0.000000e+00    0.000000e+00    0.000000e+00
    1.772654e+01    3.125667e+00    4.400000e+01    3.141516e-08   -5.338828e-08    1.784730e-06
    2.161991e+01    3.629295e+00    4.400000e+01    6.019305e-08   -6.049682e-08    1.252086e-06
    2.200000e+01    0.000000e+00    4.400000e+01    0.000000e+00    0.000000e+00    0.000000e+00
    1.800000e+01    0.000000e+00    4.400000e+01    0.000000e+00    0.000000e+00    0.000000e+00
    1.772654e+01    3.125667e+00    4.000000e+01    1.179745e-08   -4.164966e-08    1.764621e-06
    2.161991e+01    3.629295e+00    4.000000e+01    3.055697e-08   -3.824896e-08    1.255390e-06
    2.200000e+01    0.000000e+00    4.000000e+01    0.000000e+00    0.000000e+00    0.000000e+00
    1.800000e+01    0.000000e+00    4.000000e+01    0.000000e+00    0.000000e+00    0.000000e+00
    1.772654e+01    3.125667e+00    3.600000e+01    3.761511e-09   -2.615299e-08    1.754781e-06
    2.161991e+01    3.629295e+00    3.600000e+01    1.448471e-08   -2.122811e-08    1.257864e-06
    2.200000e+01    0.000000e+00    3.600000e+01    0.000000e+00    0.000000e+00    0.000000e+00
    1.800000e+01    0.000000e+00    3.600000e+01    0.000000e+00    0.000000e+00    0.000000e+00
    1.772654e+01    3.125667e+00    3.200000e+01    7.893712e-10   -8.862313e-09    1.750972e-06
    2.161991e+01    3.629295e+00    3.200000e+01    4.285492e-09   -6.802918e-09    1.259239e-06
    2.200000e+01    0.000000e+00    3.200000e+01    0.000000e+00    0.000000e+00    0.000000e+00
    1.800000e+01    0.000000e+00    3.200000e+01    0.000000e+00    0.000000e+00    0.000000e+00
    1.772654e+01    3.125667e+00    2.800000e+01   -7.893712e-10    8.862313e-09    1.750972e-06
    2.161991e+01    3.629295e+00    2.800000e+01   -4.285492e-09    6.802918e-09    1.259239e-06
    2.200000e+01    0.000000e+00    2.800000e+01    0.000000e+00    0.000000e+00    0.000000e+00
    1.800000e+01    0.000000e+00    2.800000e+01    0.000000e+00    0.000000e+00    0.000000e+00
    1.772654e+01    3.125667e+00    2.400000e+01   -3.761511e-09    2.615299e-08    1.754781e-06
    2.161991e+01    3.629295e+00    2.400000e+01   -1.448471e-08    2.122811e-08    1.257864e-06
    2.200000e+01    0.000000e+00    2.400000e+01    0.000000e+00    0.000000e+00    0.000000e+00
    1.800000e+01    0.000000e+00    2.400000e+01    0.000000e+00    0.000000e+00    0.000000e+00
    1.772654e+01    3.125667e+00    2.000000e+01   -1.179745e-08    4.164966e-08    1.764621e-06
    2.161991e+01    3.629295e+00    2.000000e+01   -3.055697e-08    3.824896e-08    1.255390e-06
    2.200000e+01    0.000000e+00    2.000000e+01    0.000000e+00    0.000000e+00    0.000000e+00
    1.800000e+01    0.000000e+00    2.000000e+01    0.000000e+00    0.000000e+00    0.000000e+00
    1.772654e+01    3.125667e+00    1.600000e+01   -3.141516e-08    5.338828e-08    1.784730e-06
    2.161991e+01    3.629295e+00    1.600000e+01   -6.019305e-08    6.049682e-08    1.252086e-06
    2.200000e+01    0.000000e+00    1.600000e+01    0.000000e+00    0.000000e+00    0.000000e+00
    1.800000e+01    0.000000e+00    1.600000e+01    0.000000e+00    0.000000e+00    0.000000e+00
    1.772654e+01    3.125667e+00    1.200000e+01   -7.471801e-08    5.766380e-08    1.821594e-06
    2.161991e+01    3.629295e+00    1.200000e+01   -1.181124e-07    9.338662e-08    1.247777e-06
    2.200000e+01    0.000000e+00    1.200000e+01    0.000000e+00    0.000000e+00    0.000000e+00
    1.800000e+01    0.000000e+00    1.200000e+01    0.000000e+00    0.000000e+00    0.000000e+00
    1.772654e+01    3.125667e+00    8.000000e+00   -1.646838e-07    6.725842e-08    1.884445e-06
    2.161991e+01    3.629295e+00    8.000000e+00   -2.365844e-07    1.560675e-07    1.239977e-06
    2.200000e+01    0.000000e+00    8.000000e+00    0.000000e+00    0.000000e+00    0.000000e+00
    1.800000e+01    0.000000e+00    8.000000e+00    0.000000e+00    0.000000e+00    0.000000e+00
    1.772654e+01    3.125667e+00    4.000000e+00   -3.624236e-07    6.214457e-08    1.988639e-06
    2.161991e+01    3.629295e+00    4.000000e+00   -4.909555e-07    3.010999e-07    1.245132e-06
    2.200000e+01    0.000000e+00    4.000000e+00    0.000000e+00    0.000000e+00    0.000000e+00
    1.800000e+01    0.000000e+00    4.000000e+00    0.000000e+00    0.000000e+00    0.000000e+00
    1.772654e+01    3.125667e+00    0.000000e+00   -9.246831e-07    8.815816e-07    2.403891e-06
    2.161991e+01    3.629295e+00    0.000000e+00   -1.109191e-06    1.068584e-06    1.474931e-06
    2.200000e+01    0.000000e+00    0.000000e+00    0.000000e+00    0.000000e+00    0.000000e+00
    1.800000e+01    0.000000e+00    0.000000e+00    0.000000e+00    0.000000e+00    0.000000e+00
   -4.980973e+01    4.357787e+00    5.600000e+01    2.735023e-07    4.408916e-07   -3.132386e-07
   -4.573892e+01    4.102273e+00    5.600000e+01    1.020920e-07    2.763051e-07   -2.644040e-07