TITLE="test case governed by poisson equation"
VARIABLES="x""y""z""sigazx"
ZONE N=    2976,E=    1860,ET=BRICK,F=FEPOINT
    5.000000e+01    0.000000e+00    6.000000e+01   -5.240236e+02
    4.980973e+01    4.357787e+00    6.000000e+01   -1.016792e+03
    4.924039e+01    8.682409e+00    6.000000e+01   -7.160123e+02
    4.829629e+01    1.294095e+01    6.000000e+01    1.331357e+03
    4.698463e+01    1.710101e+01    6.000000e+01    4.162540e+03
    4.531539e+01    2.113091e+01    6.000000e+01    7.082268e+03
    4.330127e+01    2.500000e+01    6.000000e+01    9.555152e+03
    4.095760e+01    2.867882e+01    6.000000e+01    1.103861e+04
    3.830222e+01    3.213938e+01    6.000000e+01    1.113216e+04
    3.535534e+01    3.535534e+01    6.000000e+01    9.643858e+03
    3.213938e+01    3.830222e+01    6.000000e+01    6.571909e+03
    2.867882e+01    4.095760e+01    6.000000e+01    2.104760e+03
    2.500000e+01    4.330127e+01    6.000000e+01   -3.394306e+03
    2.113091e+01    4.531539e+01    6.000000e+01   -9.442294e+03
    1.710101e+01    4.698463e+01    6.000000e+01   -1.546304e+04
    1.294095e+01    4.829629e+01    6.000000e+01   -2.085793e+04
    8.682409e+00    4.924039e+01    6.000000e+01   -2.507387e+04
    4.357787e+00    4.980973e+01    6.000000e+01   -2.759968e+04
    0.000000e+00    5.000000e+01    6.000000e+01   -2.809276e+04
   -4.357787e+00    4.980973e+01    6.000000e+01   -2.641228e+04
   -8.682409e+00    4.924039e+01    6.000000e+01   -2.253209e+04
   -1.294095e+01    4.829629e+01    6.000000e+01   -1.671969e+04
   -1.710101e+01    4.698463e+01    6.000000e+01   -9.436184e+03
   -2.113091e+01    4.531539e+01    6.000000e+01   -1.370718e+03
   -2.500000e+01    4.330127e+01    6.000000e+01    6.591870e+03
   -2.867882e+01    4.095760e+01    6.000000e+01    1.356680e+04
   -3.213938e+01    3.830222e+01    6.000000e+01    1.874359e+04
   -3.535534e+01    3.535534e+01    6.000000e+01    2.155128e+04
   -3.830222e+01    3.213938e+01    6.000000e+01    2.146017e+04
   -4.095760e+01    2.867882e+01    6.000000e+01    1.855267e+04
   -4.330127e+01    2.500000e+01    6.000000e+01    1.317632e+04
   -4.531539e+01    2.113091e+01    6.000000e+01    6.436421e+03
   -4.698463e+01    1.710101e+01    6.000000e+01   -1.761931e+02
   -4.829629e+01    1.294095e+01    6.000000e+01   -2.547945e+03
   -4.924039e+01    8.682409e+00    6.000000e+01   -1.865696e+03
   -4.980973e+01    4.357787e+00    6.000000e+01   -1.865696e+03
   -5.000000e+01    0.000000e+00    6.000000e+01   -2.130319e+03
   -4.600000e+01    0.000000e+00    6.000000e+01   -2.060642e+03
   -4.200000e+01    0.000000e+00    6.000000e+01   -1.630372e+03
   -3.800000e+01    0.000000e+00    6.000000e+01   -1.180251e+03
   -3.400000e+01    0.000000e+00    6.000000e+01   -1.187590e+03
   -3.000000e+01    0.000000e+00    6.000000e+01   -1.602699e+02
   -2.600000e+01    0.000000e+00    6.000000e+01   -8.283623e+01
   -2.200000e+01    0.000000e+00    6.000000e+01   -8.283623e+01
   -1.800000e+01    0.000000e+00    6.000000e+01    5.067758e+03
   -1.772654e+01    3.125667e+00    6.000000e+01    1.475561e+04
   -1.691447e+01    6.156363e+00    6.000000e+01    2.857127e+04
   -1.558846e+01    9.000000e+00    6.000000e+01    4.617090e+04
   -1.378880e+01    1.157018e+01    6.000000e+01    6.695748e+04
   -1.157018e+01    1.378880e+01    6.000000e+01    8.776251e+04
   -9.000000e+00    1.558846e+01    6.000000e+01    1.062509e+05
   -6.156363e+00    1.691447e+01    6.000000e+01    1.210927e+05
   -3.125667e+00    1.772654e+01    6.000000e+01    1.314076e+05
    0.000000e+00    1.800000e+01    6.000000e+01    1.364084e+05
    3.125667e+00    1.772654e+01    6.000000e+01    1.350722e+05
    6.156363e+00    1.691447e+01    6.000000e+01    1.261777e+05
    9.000000e+00    1.558846e+01    6.000000e+01    1.085899e+05
    1.157018e+01    1.378880e+01    6.000000e+01    8.202791e+04
    1.378880e+01    1.157018e+01    6.000000e+01    4.968578e+04
    1.558846e+01    9.000000e+00    6.000000e+01    1.891787e+04
    1.691447e+01    6.156363e+00    6.000000e+01   -9.238172e+02
    1.772654e+01    3.125667e+00    6.000000e+01   -9.238172e+02
    1.800000e+01    0.000000e+00    6.000000e+01   -1.467270e+03
    2.200000e+01    0.000000e+00    6.000000e+01    1.190130e+02
    2.600000e+01    0.000000e+00    6.000000e+01    8.928640e+02
    3.000000e+01    0.000000e+00    6.000000e+01    9.527721e+02
    3.400000e+01    0.000000e+00    6.000000e+01    1.162870e+03
    3.800000e+01    0.000000e+00    6.000000e+01    1.162870e+03
    4.200000e+01    0.000000e+00    6.000000e+01    3.937059e+02
    4.600000e+01    0.000000e+00    6.000000e+01    8.848454e+01
   -2.473863e+01    8.000000e+00    6.000000e+01    5.386373e+03
   -2.886174e+01    8.000000e+00    6.000000e+01    1.613564e+03
   -3.298485e+01    8.000000e+00    6.000000e+01    7.738940e+02
   -3.710795e+01    8.000000e+00    6.000000e+01    2.881909e+03
   -4.123106e+01    8.000000e+00    6.000000e+01    8.998498e+01
   -4.038926e+01    1.151989e+01    6.000000e+01    8.998498e+01
   -3.924756e+01    1.495423e+01    6.000000e+01   -3.211284e+02
   -3.781444e+01    1.827754e+01    6.000000e+01    8.966087e+02
   -3.610053e+01    2.146513e+01    6.000000e+01    1.659147e+03
   -3.411856e+01    2.449334e+01    6.000000e+01    2.019142e+03
   -3.188326e+01    2.733967e+01    6.000000e+01    2.039321e+03
   -2.941121e+01    2.998300e+01    6.000000e+01    1.802259e+03
   -2.672078e+01    3.240370e+01    6.000000e+01    1.398493e+03
   -2.383193e+01    3.458380e+01    6.000000e+01    9.188052e+02
   -2.076613e+01    3.650709e+01    6.000000e+01    4.449049e+02
   -1.754613e+01    3.815931e+01    6.000000e+01    4.274988e+01
   -1.419585e+01    3.952819e+01    6.000000e+01   -2.420704e+02
   -1.074016e+01    4.060356e+01    6.000000e+01   -3.870259e+02
   -7.204722e+00    4.137743e+01    6.000000e+01   -3.919167e+02
   -3.615785e+00    4.184407e+01    6.000000e+01   -2.772418e+02
    0.000000e+00    4.200000e+01    6.000000e+01   -7.953763e+01
    3.615785e+00    4.184407e+01    6.000000e+01    1.538459e+02
    7.204722e+00    4.137743e+01    6.000000e+01    3.701874e+02
    1.074016e+01    4.060356e+01    6.000000e+01    5.192950e+02
    1.419585e+01    3.952819e+01    6.000000e+01    5.591724e+02
    1.754613e+01    3.815931e+01    6.000000e+01    4.616978e+02
    2.076613e+01    3.650709e+01    6.000000e+01    2.180224e+02
    2.383193e+01    3.458380e+01    6.000000e+01   -1.592745e+02
    2.672078e+01    3.240370e+01    6.000000e+01   -6.345471e+02
    2.941121e+01    2.998300e+01    6.000000e+01   -1.150548e+03
    3.188326e+01    2.733967e+01    6.000000e+01   -1.632218e+03
    3.411856e+01    2.449334e+01    6.000000e+01   -1.992038e+03
    3.610053e+01    2.146513e+01    6.000000e+01   -2.138749e+03
    3.781444e+01    1.827754e+01    6.000000e+01   -1.985727e+03
    3.924756e+01    1.495423e+01    6.000000e+01   -1.459316e+03
    4.038926e+01    1.151989e+01    6.000000e+01   -5.009996e+02
    4.123106e+01    8.000000e+00    6.000000e+01    6.557793e+02
    3.710795e+01    8.000000e+00    6.000000e+01   -4.649237e+02
    3.298485e+01    8.000000e+00    6.000000e+01   -9.867189e+01
    2.886174e+01    8.000000e+00    6.000000e+01   -4.257208e+02
    2.473863e+01    8.000000e+00    6.000000e+01   -7.925463e+02
    2.291017e+01    1.229325e+01    6.000000e+01    1.057209e+04
    2.034373e+01    1.619051e+01    6.000000e+01    1.673358e+04
    1.712198e+01    1.956624e+01    6.000000e+01    1.900402e+04
    1.334870e+01    2.231171e+01    6.000000e+01    1.768891e+04
    9.145430e+00    2.433847e+01    6.000000e+01    1.410946e+04
    4.647568e+00    2.558125e+01    6.000000e+01    9.292121e+03
    0.000000e+00    2.600000e+01    6.000000e+01   -2.374638e+03
   -4.647568e+00    2.558125e+01    6.000000e+01   -4.996806e+03
   -9.145430e+00    2.433847e+01    6.000000e+01   -7.562107e+03
   -1.334870e+01    2.231171e+01    6.000000e+01   -9.712951e+03
   -1.712198e+01    1.956624e+01    6.000000e+01   -1.079049e+04
   -2.034373e+01    1.619051e+01    6.000000e+01   -9.392021e+03
   -2.291017e+01    1.229325e+01    6.000000e+01   -2.731346e+03
   -2.163875e+01    3.628618e+00    6.000000e+01    6.964971e+03
    2.161991e+01    3.629295e+00    6.000000e+01   -1.057617e+02
   -4.573892e+01    4.102273e+00    6.000000e+01   -2.338526e+03
    4.571434e+01    4.109567e+00    6.000000e+01    1.545342e+03
   -4.165214e+01    4.015303e+00    6.000000e+01   -2.338526e+03
    4.523563e+01    8.152204e+00    6.000000e+01    6.557793e+02
    4.437674e+01    1.211971e+01    6.000000e+01   -5.009996e+02
    4.315033e+01    1.594729e+01    6.000000e+01   -1.459316e+03
    4.160183e+01    1.963603e+01    6.000000e+01   -1.985727e+03
    3.973977e+01    2.317461e+01    6.000000e+01   -2.138749e+03
    3.757867e+01    2.653596e+01    6.000000e+01   -1.992038e+03
    3.513408e+01    2.969708e+01    6.000000e+01   -1.632218e+03
    3.242410e+01    3.263458e+01    6.000000e+01   -1.150548e+03
    2.946928e+01    3.532560e+01    6.000000e+01   -6.345471e+02
    2.629204e+01    3.775009e+01    6.000000e+01   -1.592745e+02
    2.291615e+01    3.988993e+01    6.000000e+01    2.180224e+02
    1.936715e+01    4.172848e+01    6.000000e+01    4.616978e+02
    1.567232e+01    4.325198e+01    6.000000e+01    5.591724e+02
    1.185889e+01    4.444924e+01    6.000000e+01    5.192950e+02
    7.955883e+00    4.531076e+01    6.000000e+01    3.701874e+02
    3.993184e+00    4.583030e+01    6.000000e+01    1.538459e+02
    0.000000e+00    4.600405e+01    6.000000e+01   -7.953763e+01
   -3.993184e+00    4.583030e+01    6.000000e+01   -2.772418e+02
   -7.955646e+00    4.531081e+01    6.000000e+01   -3.919167e+02
   -1.185862e+01    4.444932e+01    6.000000e+01   -3.870259e+02
   -1.567211e+01    4.325205e+01    6.000000e+01   -2.420704e+02
   -1.936793e+01    4.172808e+01    6.000000e+01    4.274988e+01
   -2.291897e+01    3.988821e+01    6.000000e+01    4.449049e+02
   -2.629731e+01    3.774624e+01    6.000000e+01    9.188052e+02
   -2.947697e+01    3.531904e+01    6.000000e+01    1.398493e+03
   -3.243381e+01    3.262479e+01    6.000000e+01    1.802259e+03
   -3.514428e+01    2.968480e+01    6.000000e+01    2.039321e+03
   -3.759023e+01    2.651936e+01    6.000000e+01    2.019142e+03
   -3.975154e+01    2.315402e+01    6.000000e+01    1.659147e+03
   -4.161308e+01    1.961149e+01    6.000000e+01    8.966087e+02
   -4.315985e+01    1.592045e+01    6.000000e+01   -3.211284e+02
   -4.438299e+01    1.209670e+01    6.000000e+01    8.998498e+01
   -4.524409e+01    8.137423e+00    6.000000e+01    8.998498e+01
   -2.076586e+01    7.239084e+00    6.000000e+01    6.964971e+03
   -1.923903e+01    1.070065e+01    6.000000e+01   -2.731346e+03
   -1.706956e+01    1.390049e+01    6.000000e+01   -9.392021e+03
   -1.435218e+01    1.669166e+01    6.000000e+01   -1.079049e+04
   -1.117956e+01    1.896378e+01    6.000000e+01   -9.712951e+03
   -7.653899e+00    2.064061e+01    6.000000e+01   -7.562107e+03
   -3.887942e+00    2.166817e+01    6.000000e+01   -4.996806e+03
    0.000000e+00    2.201434e+01    6.000000e+01   -2.374638e+03
    3.887962e+00    2.166817e+01    6.000000e+01    9.292121e+03
    7.653766e+00    2.064067e+01    6.000000e+01    1.410946e+04
    1.117939e+01    1.896389e+01    6.000000e+01    1.768891e+04
    1.435153e+01    1.669225e+01    6.000000e+01    1.900402e+04
    1.706858e+01    1.390179e+01    6.000000e+01    1.673358e+04
    1.923739e+01    1.070385e+01    6.000000e+01    1.057209e+04
    2.075951e+01    7.244071e+00    6.000000e+01   -1.057617e+02
   -3.761756e+01    4.010140e+00    6.000000e+01    2.881909e+03
   -3.355935e+01    4.010137e+00    6.000000e+01    7.738940e+02
   -2.953620e+01    4.010619e+00    6.000000e+01    1.613564e+03
   -2.554584e+01    3.954124e+00    6.000000e+01    5.386373e+03
    2.551887e+01    3.953839e+00    6.000000e+01   -7.925463e+02
    4.162606e+01    4.017016e+00    6.000000e+01    1.545342e+03
    3.756564e+01    4.010135e+00    6.000000e+01   -4.649237e+02
    2.949025e+01    4.010464e+00    6.000000e+01   -4.257208e+02
    3.352269e+01    4.010140e+00    6.000000e+01   -9.867189e+01
   -2.200000e+01    0.000000e+00    5.600000e+01   -3.993286e+03
   -2.163875e+01    3.628618e+00    5.600000e+01    1.348335e+04
   -1.772654e+01    3.125667e+00    5.600000e+01    1.926986e+04
   -1.800000e+01    0.000000e+00    5.600000e+01    9.242049e+03
   -2.200000e+01    0.000000e+00    5.200000e+01   -3.126185e+03
   -2.163875e+01    3.628618e+00    5.200000e+01    1.602271e+04
   -1.772654e+01    3.125667e+00    5.200000e+01    2.088886e+04
   -1.800000e+01    0.000000e+00    5.200000e+01    9.607924e+03
   -2.200000e+01    0.000000e+00    4.800000e+01   -2.372451e+03
   -2.163875e+01    3.628618e+00    4.800000e+01    1.671003e+04
   -1.772654e+01    3.125667e+00    4.800000e+01    2.101295e+04
   -1.800000e+01    0.000000e+00    4.800000e+01    9.532589e+03
   -2.200000e+01    0.000000e+00    4.400000e+01   -1.985224e+03
   -2.163875e+01    3.628618e+00    4.400000e+01    1.683605e+04
   -1.772654e+01    3.125667e+00    4.400000e+01    2.086552e+04
   -1.800000e+01    0.000000e+00    4.400000e+01    9.442377e+03
   -2.200000e+01    0.000000e+00    4.000000e+01   -1.772071e+03
   -2.163875e+01    3.628618e+00    4.000000e+01    1.680987e+04
   -1.772654e+01    3.125667e+00    4.000000e+01    2.071535e+04
   -1.800000e+01    0.000000e+00    4.000000e+01    9.378289e+03
   -2.200000e+01    0.000000e+00    3.600000e+01   -1.653742e+03
   -2.163875e+01    3.628618e+00    3.600000e+01    1.676467e+04
   -1.772654e+01    3.125667e+00    3.600000e+01    2.063207e+04
   -1.800000e+01    0.000000e+00    3.600000e+01    9.344363e+03
   -2.200000e+01    0.000000e+00    3.200000e+01   -1.594461e+03
   -2.163875e+01    3.628618e+00    3.200000e+01    1.673786e+04
   -1.772654e+01    3.125667e+00    3.200000e+01    2.063948e+04
   -1.800000e+01    0.000000e+00    3.200000e+01    9.343094e+03
   -2.200000e+01    0.000000e+00    2.800000e+01   -1.586675e+03
   -2.163875e+01    3.628618e+00    2.800000e+01    1.673915e+04
   -1.772654e+01    3.125667e+00    2.800000e+01    2.076842e+04
   -1.800000e+01    0.000000e+00    2.800000e+01    9.382222e+03
   -2.200000e+01    0.000000e+00    2.400000e+01   -1.642757e+03
   -2.163875e+01    3.628618e+00    2.400000e+01    1.676711e+04
   -1.772654e+01    3.125667e+00    2.400000e+01    2.107160e+04
   -1.800000e+01    0.000000e+00    2.400000e+01    9.476863e+03
   -2.200000e+01    0.000000e+00    2.000000e+01   -1.796892e+03
   -2.163875e+01    3.628618e+00    2.000000e+01    1.679984e+04
   -1.772654e+01    3.125667e+00    2.000000e+01    2.161925e+04
   -1.800000e+01    0.000000e+00    2.000000e+01    9.645076e+03
   -2.200000e+01    0.000000e+00    1.600000e+01   -2.117076e+03
   -2.163875e+01    3.628618e+00    1.600000e+01    1.674213e+04
   -1.772654e+01    3.125667e+00    1.600000e+01    2.247645e+04
   -1.800000e+01    0.000000e+00    1.600000e+01    9.905438e+03
   -2.200000e+01    0.000000e+00    1.200000e+01   -2.755563e+03
   -2.163875e+01    3.628618e+00    1.200000e+01    1.631315e+04
   -1.772654e+01    3.125667e+00    1.200000e+01    2.359895e+04
   -1.800000e+01    0.000000e+00    1.200000e+01    1.024306e+04
   -2.200000e+01    0.000000e+00    8.000000e+00   -4.158081e+03
   -2.163875e+01    3.628618e+00    8.000000e+00    1.464233e+04
   -1.772654e+01    3.125667e+00    8.000000e+00    2.498897e+04
   -1.800000e+01    0.000000e+00    8.000000e+00    1.030735e+04
   -2.200000e+01    0.000000e+00    4.000000e+00   -7.588149e+03
   -2.163875e+01    3.628618e+00    4.000000e+00    9.367021e+03
   -1.772654e+01    3.125667e+00    4.000000e+00    2.413260e+04
   -1.800000e+01    0.000000e+00    4.000000e+00    9.466608e+03
   -2.200000e+01    0.000000e+00    0.000000e+00   -7.588149e+03
   -2.163875e+01    3.628618e+00    0.000000e+00    9.367021e+03
   -1.772654e+01    3.125667e+00    0.000000e+00    2.413260e+04
   -1.800000e+01    0.000000e+00    0.000000e+00    9.466608e+03
    1.772654e+01    3.125667e+00    5.600000e+01    9.151572e+01
    2.161991e+01    3.629295e+00    5.600000e+01    7.250888e+02
    2.200000e+01    0.000000e+00    5.600000e+01    1.576851e+03
    1.800000e+01    0.000000e+00    5.600000e+01    3.206892e+02
    1.772654e+01    3.125667e+00    5.200000e+01   -6.176137e+02
    2.161991e+01    3.629295e+00    5.200000e+01   -2.487440e+02
    2.200000e+01    0.000000e+00    5.200000e+01    7.119530e+02
    1.800000e+01    0.000000e+00    5.200000e+01   -4.204893e+02
    1.772654e+01    3.125667e+00    4.800000e+01   -1.098560e+03
    2.161991e+01    3.629295e+00    4.800000e+01   -1.096283e+03
    2.200000e+01    0.000000e+00    4.800000e+01    4.424426e+01
    1.800000e+01    0.000000e+00    4.800000e+01   -8.319555e+02
    1.772654e+01    3.125667e+00    4.400000e+01   -1.321513e+03
    2.161991e+01    3.629295e+00    4.400000e+01   -1.613415e+03
    2.200000e+01    0.000000e+00    4.400000e+01   -3.324185e+02
    1.800000e+01    0.000000e+00    4.400000e+01   -9.965094e+02
    1.772654e+01    3.125667e+00    4.000000e+01   -1.432306e+03
    2.161991e+01    3.629295e+00    4.000000e+01   -1.909379e+03
    2.200000e+01    0.000000e+00    4.000000e+01   -5.414147e+02
    1.800000e+01    0.000000e+00    4.000000e+01   -1.072318e+03
    1.772654e+01    3.125667e+00    3.600000e+01   -1.488018e+03
    2.161991e+01    3.629295e+00    3.600000e+01   -2.073919e+03
    2.200000e+01    0.000000e+00    3.600000e+01   -6.577205e+02
    1.800000e+01    0.000000e+00    3.600000e+01   -1.108826e+03
    1.772654e+01    3.125667e+00    3.200000e+01   -1.510800e+03
    2.161991e+01    3.629295e+00    3.200000e+01   -2.158646e+03
    2.200000e+01    0.000000e+00    3.200000e+01   -7.172899e+02
    1.800000e+01    0.000000e+00    3.200000e+01   -1.124022e+03
    1.772654e+01    3.125667e+00    2.800000e+01   -1.498640e+03
    2.161991e+01    3.629295e+00    2.800000e+01   -2.183392e+03
    2.200000e+01    0.000000e+00    2.800000e+01   -7.324405e+02
    1.800000e+01    0.000000e+00    2.800000e+01   -1.116699e+03
    1.772654e+01    3.125667e+00    2.400000e+01   -1.431925e+03
    2.161991e+01    3.629295e+00    2.400000e+01   -2.137598e+03
    2.200000e+01    0.000000e+00    2.400000e+01   -6.951173e+02
    1.800000e+01    0.000000e+00    2.400000e+01   -1.074429e+03
    1.772654e+01    3.125667e+00    2.000000e+01   -1.270055e+03
    2.161991e+01    3.629295e+00    2.000000e+01   -1.973124e+03
    2.200000e+01    0.000000e+00    2.000000e+01   -5.723619e+02
    1.800000e+01    0.000000e+00    2.000000e+01   -9.711428e+02
    1.772654e+01    3.125667e+00    1.600000e+01   -9.360763e+02
    2.161991e+01    3.629295e+00    1.600000e+01   -1.581908e+03
    2.200000e+01    0.000000e+00    1.600000e+01   -2.890502e+02
    1.800000e+01    0.000000e+00    1.600000e+01   -7.558896e+02
    1.772654e+01    3.125667e+00    1.200000e+01   -2.616818e+02
    2.161991e+01    3.629295e+00    1.200000e+01   -7.444596e+02
    2.200000e+01    0.000000e+00    1.200000e+01    3.180458e+02
    1.800000e+01    0.000000e+00    1.200000e+01   -2.984696e+02
    1.772654e+01    3.125667e+00    8.000000e+00    1.287224e+03
    2.161991e+01    3.629295e+00    8.000000e+00    1.096519e+03
    2.200000e+01    0.000000e+00    8.000000e+00    1.677358e+03
    1.800000e+01    0.000000e+00    8.000000e+00    8.291165e+02
    1.772654e+01    3.125667e+00    4.000000e+00    6.321072e+03
    2.161991e+01    3.629295e+00    4.000000e+00    4.976237e+03
    2.200000e+01    0.000000e+00    4.000000e+00    4.246256e+03
    1.800000e+01    0.000000e+00    4.000000e+00    4.101052e+03
    1.772654e+01    3.125667e+00    0.000000e+00    6.321072e+03
    2.161991e+01    3.629295e+00    0.000000e+00    4.976237e+03
    2.200000e+01    0.000000e+00    0.000000e+00    4.246256e+03
    1.800000e+01    0.000000e+00    0.000000e+00    4.101052e+03
   -4.980973e+01    4.357787e+00    5.600000e+01   -4.798190e+02
   -4.573892e+01    4.102273e+00    5.600000e+01   -7.673080e+02
   -4.600000e+01    0.000000e+00    5.600000e+01   -5.408187e+02
   -5.000000e+01    0.000000e+00    5.600000e+01   -4.936382e+02
   -4.980973e+01    4.357787e+00    5.200000e+01    4.225892e+01
   -4.573892e+01    4.102273e+00    5.200000e+01   -1.537804e+02
   -4.600000e+01    0.000000e+00    5.200000e+01   -1.747000e+02
   -5.000000e+01    0.000000e+00    5.200000e+01    3.592453e+01
   -4.980973e+01    4.357787e+00    4.800000e+01    2.165882e+02
   -4.573892e+01    4.102273e+00    4.800000e+01    1.278267e+02
   -4.600000e+01    0.000000e+00    4.800000e+01   -3.627411e+01
   -5.000000e+01    0.000000e+00    4.800000e+01    1.988760e+02
   -4.980973e+01    4.357787e+00    4.400000e+01    2.785831e+02
   -4.573892e+01    4.102273e+00    4.400000e+01    2.492774e+02
   -4.600000e+01    0.000000e+00    4.400000e+01    3.051655e+01
   -5.000000e+01    0.000000e+00    4.400000e+01    2.520661e+02
   -4.980973e+01    4.357787e+00    4.000000e+01    2.968917e+02
   -4.573892e+01    4.102273e+00    4.000000e+01    3.006203e+02
   -4.600000e+01    0.000000e+00    4.000000e+01    6.209154e+01
   -5.000000e+01    0.000000e+00    4.000000e+01    2.655621e+02
   -4.980973e+01    4.357787e+00    3.600000e+01    2.991559e+02
   -4.573892e+01    4.102273e+00    3.600000e+01    3.212990e+02
   -4.600000e+01    0.000000e+00    3.600000e+01    7.630540e+01
   -5.000000e+01    0.000000e+00    3.600000e+01    2.653870e+02
   -4.980973e+01    4.357787e+00    3.200000e+01    2.980608e+02
   -4.573892e+01    4.102273e+00    3.200000e+01    3.293640e+02
   -4.600000e+01    0.000000e+00    3.200000e+01    8.110560e+01
   -5.000000e+01    0.000000e+00    3.200000e+01    2.629684e+02
   -4.980973e+01    4.357787e+00    2.800000e+01    2.994851e+02
   -4.573892e+01    4.102273e+00    2.800000e+01    3.323092e+02
   -4.600000e+01    0.000000e+00    2.800000e+01    7.952690e+01
   -5.000000e+01    0.000000e+00    2.800000e+01    2.634119e+02
   -4.980973e+01    4.357787e+00    2.400000e+01    3.053086e+02
   -4.573892e+01    4.102273e+00    2.400000e+01    3.296925e+02
   -4.600000e+01    0.000000e+00    2.400000e+01    7.067254e+01
   -5.000000e+01    0.000000e+00    2.400000e+01    2.680818e+02
   -4.980973e+01    4.357787e+00    2.000000e+01    3.137115e+02
   -4.573892e+01    4.102273e+00    2.000000e+01    3.118560e+02
   -4.600000e+01    0.000000e+00    2.000000e+01    4.870703e+01
   -5.000000e+01    0.000000e+00    2.000000e+01    2.745895e+02
   -4.980973e+01    4.357787e+00    1.600000e+01    3.171003e+02
   -4.573892e+01    4.102273e+00    1.600000e+01    2.537388e+02
   -4.600000e+01    0.000000e+00    1.600000e+01   -2.279440e+00
   -5.000000e+01    0.000000e+00    1.600000e+01    2.737758e+02
   -4.980973e+01    4.357787e+00    1.200000e+01    2.923727e+02
   -4.573892e+01    4.102273e+00    1.200000e+01    9.398407e+01
   -4.600000e+01    0.000000e+00    1.200000e+01   -1.173593e+02
   -5.000000e+01    0.000000e+00    1.200000e+01    2.364346e+02
   -4.980973e+01    4.357787e+00    8.000000e+00    1.498013e+02
   -4.573892e+01    4.102273e+00    8.000000e+00   -2.566147e+02
   -4.600000e+01    0.000000e+00    8.000000e+00   -4.097215e+02
   -5.000000e+01    0.000000e+00    8.000000e+00    6.109652e+01
   -4.980973e+01    4.357787e+00    4.000000e+00   -3.164764e+02
   -4.573892e+01    4.102273e+00    4.000000e+00   -1.450805e+03
   -4.600000e+01    0.000000e+00    4.000000e+00   -1.219366e+03
   -5.000000e+01    0.000000e+00    4.000000e+00   -4.999267e+02
   -4.980973e+01    4.357787e+00    0.000000e+00   -3.164764e+02
   -4.573892e+01    4.102273e+00    0.000000e+00   -1.450805e+03
   -4.600000e+01    0.000000e+00    0.000000e+00   -1.219366e+03
   -5.000000e+01    0.000000e+00    0.000000e+00   -4.999267e+02
    4.600000e+01    0.000000e+00    5.600000e+01   -2.128537e+02
    4.571434e+01    4.109567e+00    5.600000e+01    3.252503e+02
    4.980973e+01    4.357787e+00    5.600000e+01   -4.797113e+02
    5.000000e+01    0.000000e+00    5.600000e+01   -2.681352e+02
    4.600000e+01    0.000000e+00    5.200000e+01   -3.223041e+02
    4.571434e+01    4.109567e+00    5.200000e+01   -2.741133e+02
    4.980973e+01    4.357787e+00    5.200000e+01    4.360166e+01
    5.000000e+01    0.000000e+00    5.200000e+01   -1.339003e+02
    4.600000e+01    0.000000e+00    4.800000e+01   -3.819414e+02
    4.571434e+01    4.109567e+00    4.800000e+01   -5.132055e+02
    4.980973e+01    4.357787e+00    4.800000e+01    3.191329e+02
    5.000000e+01    0.000000e+00    4.800000e+01   -7.345329e+01
    4.600000e+01    0.000000e+00    4.400000e+01   -4.233028e+02
    4.571434e+01    4.109567e+00    4.400000e+01   -6.097643e+02
    4.980973e+01    4.357787e+00    4.400000e+01    4.562695e+02
    5.000000e+01    0.000000e+00    4.400000e+01   -5.111734e+01
    4.600000e+01    0.000000e+00    4.000000e+01   -4.504280e+02
    4.571434e+01    4.109567e+00    4.000000e+01   -6.440958e+02
    4.980973e+01    4.357787e+00    4.000000e+01    5.231692e+02
    5.000000e+01    0.000000e+00    4.000000e+01   -4.399099e+01
    4.600000e+01    0.000000e+00    3.600000e+01   -4.657425e+02
    4.571434e+01    4.109567e+00    3.600000e+01   -6.540020e+02
    4.980973e+01    4.357787e+00    3.600000e+01    5.528541e+02
    5.000000e+01    0.000000e+00    3.600000e+01   -4.217787e+01
    4.600000e+01    0.000000e+00    3.200000e+01   -4.697455e+02
    4.571434e+01    4.109567e+00    3.200000e+01   -6.570781e+02
    4.980973e+01    4.357787e+00    3.200000e+01    5.614519e+02
    5.000000e+01    0.000000e+00    3.200000e+01   -4.172723e+01
    4.600000e+01    0.000000e+00    2.800000e+01   -4.630503e+02
    4.571434e+01    4.109567e+00    2.800000e+01   -6.613308e+02
    4.980973e+01    4.357787e+00    2.800000e+01    5.549126e+02
    5.000000e+01    0.000000e+00    2.800000e+01   -4.155841e+01
    4.600000e+01    0.000000e+00    2.400000e+01   -4.468649e+02
    4.571434e+01    4.109567e+00    2.400000e+01   -6.684384e+02
    4.980973e+01    4.357787e+00    2.400000e+01    5.312180e+02
    5.000000e+01    0.000000e+00    2.400000e+01   -4.302027e+01
    4.600000e+01    0.000000e+00    2.000000e+01   -4.235928e+02
    4.571434e+01    4.109567e+00    2.000000e+01   -6.735739e+02
    4.980973e+01    4.357787e+00    2.000000e+01    4.785634e+02
    5.000000e+01    0.000000e+00    2.000000e+01   -5.116936e+01
    4.600000e+01    0.000000e+00    1.600000e+01   -3.967724e+02
    4.571434e+01    4.109567e+00    1.600000e+01   -6.596885e+02
    4.980973e+01    4.357787e+00    1.600000e+01    3.677584e+02
    5.000000e+01    0.000000e+00    1.600000e+01   -8.089093e+01
    4.600000e+01    0.000000e+00    1.200000e+01   -3.785230e+02
    4.571434e+01    4.109567e+00    1.200000e+01   -5.849449e+02
    4.980973e+01    4.357787e+00    1.200000e+01    1.293317e+02
    5.000000e+01    0.000000e+00    1.200000e+01   -1.682665e+02
    4.600000e+01    0.000000e+00    8.000000e+00   -3.884081e+02
    4.571434e+01    4.109567e+00    8.000000e+00   -3.449310e+02
    4.980973e+01    4.357787e+00    8.000000e+00   -2.668473e+02
    5.000000e+01    0.000000e+00    8.000000e+00   -3.417219e+02
    4.600000e+01    0.000000e+00    4.000000e+00   -2.232547e+02
    4.571434e+01    4.109567e+00    4.000000e+00    3.672812e+02
    4.980973e+01    4.357787e+00    4.000000e+00   -4.972206e+02
    5.000000e+01    0.000000e+00    4.000000e+00   -4.464772e+02
    4.600000e+01    0.000000e+00    0.000000e+00   -2.232547e+02
    4.571434e+01    4.109567e+00    0.000000e+00    3.672812e+02
    4.980973e+01    4.357787e+00    0.000000e+00   -4.972206e+02
    5.000000e+01    0.000000e+00    0.000000e+00   -4.464772e+02
   -4.165214e+01    4.015303e+00    5.600000e+01   -7.673080e+02
   -4.200000e+01    0.000000e+00    5.600000e+01   -7.119313e+02
   -4.165214e+01    4.015303e+00    5.200000e+01   -1.537804e+02
   -4.200000e+01    0.000000e+00    5.200000e+01   -4.329662e+02
   -4.165214e+01    4.015303e+00    4.800000e+01    1.278267e+02
   -4.200000e+01    0.000000e+00    4.800000e+01   -2.824274e+02
   -4.165214e+01    4.015303e+00    4.400000e+01    2.492774e+02
   -4.200000e+01    0.000000e+00    4.400000e+01   -1.845655e+02
   -4.165214e+01    4.015303e+00    4.000000e+01    3.006203e+02
   -4.200000e+01    0.000000e+00    4.000000e+01   -1.220127e+02
   -4.165214e+01    4.015303e+00    3.600000e+01    3.212990e+02
   -4.200000e+01    0.000000e+00    3.600000e+01   -8.345638e+01
   -4.165214e+01    4.015303e+00    3.200000e+01    3.293640e+02
   -4.200000e+01    0.000000e+00    3.200000e+01   -6.346827e+01
   -4.165214e+01    4.015303e+00    2.800000e+01    3.323092e+02
   -4.200000e+01    0.000000e+00    2.800000e+01   -6.071079e+01
   -4.165214e+01    4.015303e+00    2.400000e+01    3.296925e+02
   -4.200000e+01    0.000000e+00    2.400000e+01   -7.845503e+01
   -4.165214e+01    4.015303e+00    2.000000e+01    3.118560e+02
   -4.200000e+01    0.000000e+00    2.000000e+01   -1.266975e+02
   -4.165214e+01    4.015303e+00    1.600000e+01    2.537388e+02
   -4.200000e+01    0.000000e+00    1.600000e+01   -2.281579e+02
   -4.165214e+01    4.015303e+00    1.200000e+01    9.398407e+01
   -4.200000e+01    0.000000e+00    1.200000e+01   -4.361365e+02
   -4.165214e+01    4.015303e+00    8.000000e+00   -2.566147e+02
   -4.200000e+01    0.000000e+00    8.000000e+00   -8.862391e+02
   -4.165214e+01    4.015303e+00    4.000000e+00   -1.450805e+03
   -4.200000e+01    0.000000e+00    4.000000e+00   -1.820301e+03
   -4.165214e+01    4.015303e+00    0.000000e+00   -1.450805e+03
   -4.200000e+01    0.000000e+00    0.000000e+00   -1.820301e+03
    4.523563e+01    8.152204e+00    5.600000e+01    5.787843e+01
    4.924039e+01    8.682409e+00    5.600000e+01    9.077117e+01
    4.523563e+01    8.152204e+00    5.200000e+01   -4.743190e+02