TITLE="test case governed by poisson equation"
VARIABLES="x""y""z""sigayz"
ZONE N=    2976,E=    1860,ET=BRICK,F=FEPOINT
    5.000000e+01    0.000000e+00    6.000000e+01    1.056980e+04
    4.980973e+01    4.357787e+00    6.000000e+01    9.342618e+03
    4.924039e+01    8.682409e+00    6.000000e+01    2.912907e+03
    4.829629e+01    1.294095e+01    6.000000e+01   -5.325648e+03
    4.698463e+01    1.710101e+01    6.000000e+01   -1.142708e+04
    4.531539e+01    2.113091e+01    6.000000e+01   -1.492592e+04
    4.330127e+01    2.500000e+01    6.000000e+01   -1.608462e+04
    4.095760e+01    2.867882e+01    6.000000e+01   -1.518938e+04
    3.830222e+01    3.213938e+01    6.000000e+01   -1.268988e+04
    3.535534e+01    3.535534e+01    6.000000e+01   -9.165191e+03
    3.213938e+01    3.830222e+01    6.000000e+01   -5.222605e+03
    2.867882e+01    4.095760e+01    6.000000e+01   -1.442562e+03
    2.500000e+01    4.330127e+01    6.000000e+01    1.675494e+03
    2.113091e+01    4.531539e+01    6.000000e+01    3.767821e+03
    1.710101e+01    4.698463e+01    6.000000e+01    4.629954e+03
    1.294095e+01    4.829629e+01    6.000000e+01    4.240491e+03
    8.682409e+00    4.924039e+01    6.000000e+01    2.758792e+03
    4.357787e+00    4.980973e+01    6.000000e+01    5.072046e+02
    0.000000e+00    5.000000e+01    6.000000e+01   -2.054563e+03
   -4.357787e+00    4.980973e+01    6.000000e+01   -4.389363e+03
   -8.682409e+00    4.924039e+01    6.000000e+01   -5.910995e+03
   -1.294095e+01    4.829629e+01    6.000000e+01   -6.083785e+03
   -1.710101e+01    4.698463e+01    6.000000e+01   -4.480969e+03
   -2.113091e+01    4.531539e+01    6.000000e+01   -8.899004e+02
   -2.500000e+01    4.330127e+01    6.000000e+01    4.576345e+03
   -2.867882e+01    4.095760e+01    6.000000e+01    1.149271e+04
   -3.213938e+01    3.830222e+01    6.000000e+01    1.909766e+04
   -3.535534e+01    3.535534e+01    6.000000e+01    2.639503e+04
   -3.830222e+01    3.213938e+01    6.000000e+01    3.177124e+04
   -4.095760e+01    2.867882e+01    6.000000e+01    3.366731e+04
   -4.330127e+01    2.500000e+01    6.000000e+01    2.997920e+04
   -4.531539e+01    2.113091e+01    6.000000e+01    1.904001e+04
   -4.698463e+01    1.710101e+01    6.000000e+01   -1.625028e+03
   -4.829629e+01    1.294095e+01    6.000000e+01   -1.645055e+04
   -4.924039e+01    8.682409e+00    6.000000e+01   -2.368910e+04
   -4.980973e+01    4.357787e+00    6.000000e+01   -2.368910e+04
   -5.000000e+01    0.000000e+00    6.000000e+01   -1.334777e+03
   -4.600000e+01    0.000000e+00    6.000000e+01   -8.497127e+02
   -4.200000e+01    0.000000e+00    6.000000e+01   -5.528178e+02
   -3.800000e+01    0.000000e+00    6.000000e+01    3.256435e+02
   -3.400000e+01    0.000000e+00    6.000000e+01    1.735555e+03
   -3.000000e+01    0.000000e+00    6.000000e+01    3.737615e+03
   -2.600000e+01    0.000000e+00    6.000000e+01    8.243737e+03
   -2.200000e+01    0.000000e+00    6.000000e+01    8.243737e+03
   -1.800000e+01    0.000000e+00    6.000000e+01    2.398125e+04
   -1.772654e+01    3.125667e+00    6.000000e+01    4.381812e+04
   -1.691447e+01    6.156363e+00    6.000000e+01    5.794354e+04
   -1.558846e+01    9.000000e+00    6.000000e+01    6.474285e+04
   -1.378880e+01    1.157018e+01    6.000000e+01    6.504379e+04
   -1.157018e+01    1.378880e+01    6.000000e+01    5.797706e+04
   -9.000000e+00    1.558846e+01    6.000000e+01    4.425050e+04
   -6.156363e+00    1.691447e+01    6.000000e+01    2.516966e+04
   -3.125667e+00    1.772654e+01    6.000000e+01    2.000327e+03
    0.000000e+00    1.800000e+01    6.000000e+01   -2.404175e+04
    3.125667e+00    1.772654e+01    6.000000e+01   -5.149144e+04
    6.156363e+00    1.691447e+01    6.000000e+01   -7.812038e+04
    9.000000e+00    1.558846e+01    6.000000e+01   -1.001142e+05
    1.157018e+01    1.378880e+01    6.000000e+01   -1.112645e+05
    1.378880e+01    1.157018e+01    6.000000e+01   -1.042233e+05
    1.558846e+01    9.000000e+00    6.000000e+01   -7.150961e+04
    1.691447e+01    6.156363e+00    6.000000e+01   -1.716808e+04
    1.772654e+01    3.125667e+00    6.000000e+01   -1.716808e+04
    1.800000e+01    0.000000e+00    6.000000e+01    1.208765e+04
    2.200000e+01    0.000000e+00    6.000000e+01    5.226263e+03
    2.600000e+01    0.000000e+00    6.000000e+01    2.490100e+03
    3.000000e+01    0.000000e+00    6.000000e+01    8.499537e+02
    3.400000e+01    0.000000e+00    6.000000e+01   -2.996708e+02
    3.800000e+01    0.000000e+00    6.000000e+01   -2.996708e+02
    4.200000e+01    0.000000e+00    6.000000e+01    3.942490e+03
    4.600000e+01    0.000000e+00    6.000000e+01    7.207193e+03
   -2.473863e+01    8.000000e+00    6.000000e+01    1.761199e+04
   -2.886174e+01    8.000000e+00    6.000000e+01    8.999810e+03
   -3.298485e+01    8.000000e+00    6.000000e+01    6.399157e+03
   -3.710795e+01    8.000000e+00    6.000000e+01    1.462245e+04
   -4.123106e+01    8.000000e+00    6.000000e+01    8.766501e+02
   -4.038926e+01    1.151989e+01    6.000000e+01    8.766501e+02
   -3.924756e+01    1.495423e+01    6.000000e+01   -1.540758e+03
   -3.781444e+01    1.827754e+01    6.000000e+01   -1.596842e+03
   -3.610053e+01    2.146513e+01    6.000000e+01   -1.853950e+03
   -3.411856e+01    2.449334e+01    6.000000e+01   -2.087421e+03
   -3.188326e+01    2.733967e+01    6.000000e+01   -2.203658e+03
   -2.941121e+01    2.998300e+01    6.000000e+01   -2.145690e+03
   -2.672078e+01    3.240370e+01    6.000000e+01   -1.889776e+03
   -2.383193e+01    3.458380e+01    6.000000e+01   -1.441629e+03
   -2.076613e+01    3.650709e+01    6.000000e+01   -8.335726e+02
   -1.754613e+01    3.815931e+01    6.000000e+01   -1.176595e+02
   -1.419585e+01    3.952819e+01    6.000000e+01    6.411593e+02
   -1.074016e+01    4.060356e+01    6.000000e+01    1.372697e+03
   -7.204722e+00    4.137743e+01    6.000000e+01    2.009362e+03
   -3.615785e+00    4.184407e+01    6.000000e+01    2.492264e+03
    0.000000e+00    4.200000e+01    6.000000e+01    2.777048e+03
    3.615785e+00    4.184407e+01    6.000000e+01    2.837922e+03
    7.204722e+00    4.137743e+01    6.000000e+01    2.669885e+03
    1.074016e+01    4.060356e+01    6.000000e+01    2.289293e+03
    1.419585e+01    3.952819e+01    6.000000e+01    1.732188e+03
    1.754613e+01    3.815931e+01    6.000000e+01    1.051174e+03
    2.076613e+01    3.650709e+01    6.000000e+01    3.101818e+02
    2.383193e+01    3.458380e+01    6.000000e+01   -4.216749e+02
    2.672078e+01    3.240370e+01    6.000000e+01   -1.077184e+03
    2.941121e+01    2.998300e+01    6.000000e+01   -1.598541e+03
    3.188326e+01    2.733967e+01    6.000000e+01   -1.944493e+03
    3.411856e+01    2.449334e+01    6.000000e+01   -2.097028e+03
    3.610053e+01    2.146513e+01    6.000000e+01   -2.065473e+03
    3.781444e+01    1.827754e+01    6.000000e+01   -1.890187e+03
    3.924756e+01    1.495423e+01    6.000000e+01   -1.645208e+03
    4.038926e+01    1.151989e+01    6.000000e+01   -1.482687e+03
    4.123106e+01    8.000000e+00    6.000000e+01   -1.214909e+03
    3.710795e+01    8.000000e+00    6.000000e+01   -1.439887e+05
    3.298485e+01    8.000000e+00    6.000000e+01   -7.856281e+04
    2.886174e+01    8.000000e+00    6.000000e+01   -7.905627e+04
    2.473863e+01    8.000000e+00    6.000000e+01   -7.136461e+04
    2.291017e+01    1.229325e+01    6.000000e+01    1.143028e+04
    2.034373e+01    1.619051e+01    6.000000e+01    1.597806e+04
    1.712198e+01    1.956624e+01    6.000000e+01    2.163456e+04
    1.334870e+01    2.231171e+01    6.000000e+01    2.684065e+04
    9.145430e+00    2.433847e+01    6.000000e+01    3.076864e+04
    4.647568e+00    2.558125e+01    6.000000e+01    3.331097e+04
    0.000000e+00    2.600000e+01    6.000000e+01    1.835366e+04
   -4.647568e+00    2.558125e+01    6.000000e+01    1.794343e+04
   -9.145430e+00    2.433847e+01    6.000000e+01    1.700673e+04
   -1.334870e+01    2.231171e+01    6.000000e+01    1.525623e+04
   -1.712198e+01    1.956624e+01    6.000000e+01    1.266180e+04
   -2.034373e+01    1.619051e+01    6.000000e+01    9.411602e+03
   -2.291017e+01    1.229325e+01    6.000000e+01    8.574845e+03
   -2.163875e+01    3.628618e+00    6.000000e+01    2.366348e+04
    2.161991e+01    3.629295e+00    6.000000e+01   -1.090720e+04
   -4.573892e+01    4.102273e+00    6.000000e+01   -6.352032e+02
    4.571434e+01    4.109567e+00    6.000000e+01   -5.384893e+02
   -4.165214e+01    4.015303e+00    6.000000e+01   -6.352032e+02
    4.523563e+01    8.152204e+00    6.000000e+01   -1.214909e+03
    4.437674e+01    1.211971e+01    6.000000e+01   -1.482687e+03
    4.315033e+01    1.594729e+01    6.000000e+01   -1.645208e+03
    4.160183e+01    1.963603e+01    6.000000e+01   -1.890187e+03
    3.973977e+01    2.317461e+01    6.000000e+01   -2.065473e+03
    3.757867e+01    2.653596e+01    6.000000e+01   -2.097028e+03
    3.513408e+01    2.969708e+01    6.000000e+01   -1.944493e+03
    3.242410e+01    3.263458e+01    6.000000e+01   -1.598541e+03
    2.946928e+01    3.532560e+01    6.000000e+01   -1.077184e+03
    2.629204e+01    3.775009e+01    6.000000e+01   -4.216749e+02
    2.291615e+01    3.988993e+01    6.000000e+01    3.101818e+02
    1.936715e+01    4.172848e+01    6.000000e+01    1.051174e+03
    1.567232e+01    4.325198e+01    6.000000e+01    1.732188e+03
    1.185889e+01    4.444924e+01    6.000000e+01    2.289293e+03
    7.955883e+00    4.531076e+01    6.000000e+01    2.669885e+03
    3.993184e+00    4.583030e+01    6.000000e+01    2.837922e+03
    0.000000e+00    4.600405e+01    6.000000e+01    2.777048e+03
   -3.993184e+00    4.583030e+01    6.000000e+01    2.492264e+03
   -7.955646e+00    4.531081e+01    6.000000e+01    2.009362e+03
   -1.185862e+01    4.444932e+01    6.000000e+01    1.372697e+03
   -1.567211e+01    4.325205e+01    6.000000e+01    6.411593e+02
   -1.936793e+01    4.172808e+01    6.000000e+01   -1.176595e+02
   -2.291897e+01    3.988821e+01    6.000000e+01   -8.335726e+02
   -2.629731e+01    3.774624e+01    6.000000e+01   -1.441629e+03
   -2.947697e+01    3.531904e+01    6.000000e+01   -1.889776e+03
   -3.243381e+01    3.262479e+01    6.000000e+01   -2.145690e+03
   -3.514428e+01    2.968480e+01    6.000000e+01   -2.203658e+03
   -3.759023e+01    2.651936e+01    6.000000e+01   -2.087421e+03
   -3.975154e+01    2.315402e+01    6.000000e+01   -1.853950e+03
   -4.161308e+01    1.961149e+01    6.000000e+01   -1.596842e+03
   -4.315985e+01    1.592045e+01    6.000000e+01   -1.540758e+03
   -4.438299e+01    1.209670e+01    6.000000e+01    8.766501e+02
   -4.524409e+01    8.137423e+00    6.000000e+01    8.766501e+02
   -2.076586e+01    7.239084e+00    6.000000e+01    2.366348e+04
   -1.923903e+01    1.070065e+01    6.000000e+01    8.574845e+03
   -1.706956e+01    1.390049e+01    6.000000e+01    9.411602e+03
   -1.435218e+01    1.669166e+01    6.000000e+01    1.266180e+04
   -1.117956e+01    1.896378e+01    6.000000e+01    1.525623e+04
   -7.653899e+00    2.064061e+01    6.000000e+01    1.700673e+04
   -3.887942e+00    2.166817e+01    6.000000e+01    1.794343e+04
    0.000000e+00    2.201434e+01    6.000000e+01    1.835366e+04
    3.887962e+00    2.166817e+01    6.000000e+01    3.331097e+04
    7.653766e+00    2.064067e+01    6.000000e+01    3.076864e+04
    1.117939e+01    1.896389e+01    6.000000e+01    2.684065e+04
    1.435153e+01    1.669225e+01    6.000000e+01    2.163456e+04
    1.706858e+01    1.390179e+01    6.000000e+01    1.597806e+04
    1.923739e+01    1.070385e+01    6.000000e+01    1.143028e+04
    2.075951e+01    7.244071e+00    6.000000e+01   -1.090720e+04
   -3.761756e+01    4.010140e+00    6.000000e+01    1.462245e+04
   -3.355935e+01    4.010137e+00    6.000000e+01    6.399157e+03
   -2.953620e+01    4.010619e+00    6.000000e+01    8.999810e+03
   -2.554584e+01    3.954124e+00    6.000000e+01    1.761199e+04
    2.551887e+01    3.953839e+00    6.000000e+01   -7.136461e+04
    4.162606e+01    4.017016e+00    6.000000e+01   -5.384893e+02
    3.756564e+01    4.010135e+00    6.000000e+01   -1.439887e+05
    2.949025e+01    4.010464e+00    6.000000e+01   -7.905627e+04
    3.352269e+01    4.010140e+00    6.000000e+01   -7.856281e+04
   -2.200000e+01    0.000000e+00    5.600000e+01    1.380192e+04
   -2.163875e+01    3.628618e+00    5.600000e+01    4.128680e+04
   -1.772654e+01    3.125667e+00    5.600000e+01    5.386275e+04
   -1.800000e+01    0.000000e+00    5.600000e+01    4.833143e+04
   -2.200000e+01    0.000000e+00    5.200000e+01    1.473437e+04
   -2.163875e+01    3.628618e+00    5.200000e+01    4.697040e+04
   -1.772654e+01    3.125667e+00    5.200000e+01    5.745488e+04
   -1.800000e+01    0.000000e+00    5.200000e+01    4.758930e+04
   -2.200000e+01    0.000000e+00    4.800000e+01    1.512310e+04
   -2.163875e+01    3.628618e+00    4.800000e+01    4.697850e+04
   -1.772654e+01    3.125667e+00    4.800000e+01    5.701340e+04
   -1.800000e+01    0.000000e+00    4.800000e+01    4.620069e+04
   -2.200000e+01    0.000000e+00    4.400000e+01    1.530259e+04
   -2.163875e+01    3.628618e+00    4.400000e+01    4.606419e+04
   -1.772654e+01    3.125667e+00    4.400000e+01    5.624555e+04
   -1.800000e+01    0.000000e+00    4.400000e+01    4.541798e+04
   -2.200000e+01    0.000000e+00    4.000000e+01    1.540709e+04
   -2.163875e+01    3.628618e+00    4.000000e+01    4.526162e+04
   -1.772654e+01    3.125667e+00    4.000000e+01    5.569082e+04
   -1.800000e+01    0.000000e+00    4.000000e+01    4.499311e+04
   -2.200000e+01    0.000000e+00    3.600000e+01    1.546114e+04
   -2.163875e+01    3.628618e+00    3.600000e+01    4.473420e+04
   -1.772654e+01    3.125667e+00    3.600000e+01    5.540133e+04
   -1.800000e+01    0.000000e+00    3.600000e+01    4.478297e+04
   -2.200000e+01    0.000000e+00    3.200000e+01    1.547103e+04
   -2.163875e+01    3.628618e+00    3.200000e+01    4.443259e+04
   -1.772654e+01    3.125667e+00    3.200000e+01    5.537597e+04
   -1.800000e+01    0.000000e+00    3.200000e+01    4.473173e+04
   -2.200000e+01    0.000000e+00    2.800000e+01    1.543805e+04
   -2.163875e+01    3.628618e+00    2.800000e+01    4.431493e+04
   -1.772654e+01    3.125667e+00    2.800000e+01    5.568177e+04
   -1.800000e+01    0.000000e+00    2.800000e+01    4.486366e+04
   -2.200000e+01    0.000000e+00    2.400000e+01    1.536244e+04
   -2.163875e+01    3.628618e+00    2.400000e+01    4.439737e+04
   -1.772654e+01    3.125667e+00    2.400000e+01    5.649006e+04
   -1.800000e+01    0.000000e+00    2.400000e+01    4.527052e+04
   -2.200000e+01    0.000000e+00    2.000000e+01    1.523736e+04
   -2.163875e+01    3.628618e+00    2.000000e+01    4.476496e+04
   -1.772654e+01    3.125667e+00    2.000000e+01    5.808679e+04
   -1.800000e+01    0.000000e+00    2.000000e+01    4.609728e+04
   -2.200000e+01    0.000000e+00    1.600000e+01    1.503455e+04
   -2.163875e+01    3.628618e+00    1.600000e+01    4.552826e+04
   -1.772654e+01    3.125667e+00    1.600000e+01    6.086438e+04
   -1.800000e+01    0.000000e+00    1.600000e+01    4.755826e+04
   -2.200000e+01    0.000000e+00    1.200000e+01    1.460700e+04
   -2.163875e+01    3.628618e+00    1.200000e+01    4.666253e+04
   -1.772654e+01    3.125667e+00    1.200000e+01    6.520868e+04
   -1.800000e+01    0.000000e+00    1.200000e+01    4.987625e+04
   -2.200000e+01    0.000000e+00    8.000000e+00    1.385762e+04
   -2.163875e+01    3.628618e+00    8.000000e+00    4.700057e+04
   -1.772654e+01    3.125667e+00    8.000000e+00    7.166311e+04
   -1.800000e+01    0.000000e+00    8.000000e+00    5.328077e+04
   -2.200000e+01    0.000000e+00    4.000000e+00    1.077445e+04
   -2.163875e+01    3.628618e+00    4.000000e+00    4.100731e+04
   -1.772654e+01    3.125667e+00    4.000000e+00    7.401873e+04
   -1.800000e+01    0.000000e+00    4.000000e+00    5.711978e+04
   -2.200000e+01    0.000000e+00    0.000000e+00    1.077445e+04
   -2.163875e+01    3.628618e+00    0.000000e+00    4.100731e+04
   -1.772654e+01    3.125667e+00    0.000000e+00    7.401873e+04
   -1.800000e+01    0.000000e+00    0.000000e+00    5.711978e+04
    1.772654e+01    3.125667e+00    5.600000e+01   -3.547882e+04
    2.161991e+01    3.629295e+00    5.600000e+01   -4.671882e+04
    2.200000e+01    0.000000e+00    5.600000e+01    9.156197e+03
    1.800000e+01    0.000000e+00    5.600000e+01    1.800242e+04
    1.772654e+01    3.125667e+00    5.200000e+01   -3.486928e+04
    2.161991e+01    3.629295e+00    5.200000e+01   -5.135253e+04
    2.200000e+01    0.000000e+00    5.200000e+01    1.012992e+04
    1.800000e+01    0.000000e+00    5.200000e+01    1.849988e+04
    1.772654e+01    3.125667e+00    4.800000e+01   -3.262435e+04
    2.161991e+01    3.629295e+00    4.800000e+01   -4.882564e+04
    2.200000e+01    0.000000e+00    4.800000e+01    1.064083e+04
    1.800000e+01    0.000000e+00    4.800000e+01    1.868440e+04
    1.772654e+01    3.125667e+00    4.400000e+01   -3.124766e+04
    2.161991e+01    3.629295e+00    4.400000e+01   -4.614249e+04
    2.200000e+01    0.000000e+00    4.400000e+01    1.091780e+04
    1.800000e+01    0.000000e+00    4.400000e+01    1.872967e+04
    1.772654e+01    3.125667e+00    4.000000e+01   -3.041646e+04
    2.161991e+01    3.629295e+00    4.000000e+01   -4.418842e+04
    2.200000e+01    0.000000e+00    4.000000e+01    1.108612e+04
    1.800000e+01    0.000000e+00    4.000000e+01    1.876097e+04
    1.772654e+01    3.125667e+00    3.600000e+01   -2.997868e+04
    2.161991e+01    3.629295e+00    3.600000e+01   -4.296207e+04
    2.200000e+01    0.000000e+00    3.600000e+01    1.117259e+04
    1.800000e+01    0.000000e+00    3.600000e+01    1.878178e+04
    1.772654e+01    3.125667e+00    3.200000e+01   -2.988265e+04
    2.161991e+01    3.629295e+00    3.200000e+01   -4.232712e+04
    2.200000e+01    0.000000e+00    3.200000e+01    1.118798e+04
    1.800000e+01    0.000000e+00    3.200000e+01    1.878799e+04
    1.772654e+01    3.125667e+00    2.800000e+01   -3.019476e+04
    2.161991e+01    3.629295e+00    2.800000e+01   -4.221476e+04
    2.200000e+01    0.000000e+00    2.800000e+01    1.113432e+04
    1.800000e+01    0.000000e+00    2.800000e+01    1.877872e+04
    1.772654e+01    3.125667e+00    2.400000e+01   -3.108726e+04
    2.161991e+01    3.629295e+00    2.400000e+01   -4.267027e+04
    2.200000e+01    0.000000e+00    2.400000e+01    1.100747e+04
    1.800000e+01    0.000000e+00    2.400000e+01    1.876179e+04
    1.772654e+01    3.125667e+00    2.000000e+01   -3.283137e+04
    2.161991e+01    3.629295e+00    2.000000e+01   -4.383150e+04
    2.200000e+01    0.000000e+00    2.000000e+01    1.079511e+04
    1.800000e+01    0.000000e+00    2.000000e+01    1.874552e+04
    1.772654e+01    3.125667e+00    1.600000e+01   -3.583179e+04
    2.161991e+01    3.629295e+00    1.600000e+01   -4.582311e+04
    2.200000e+01    0.000000e+00    1.600000e+01    1.047045e+04
    1.800000e+01    0.000000e+00    1.600000e+01    1.872755e+04
    1.772654e+01    3.125667e+00    1.200000e+01   -4.070922e+04
    2.161991e+01    3.629295e+00    1.200000e+01   -4.841254e+04
    2.200000e+01    0.000000e+00    1.200000e+01    9.928103e+03
    1.800000e+01    0.000000e+00    1.200000e+01    1.856979e+04
    1.772654e+01    3.125667e+00    8.000000e+00   -4.830850e+04
    2.161991e+01    3.629295e+00    8.000000e+00   -5.069547e+04
    2.200000e+01    0.000000e+00    8.000000e+00    9.208223e+03
    1.800000e+01    0.000000e+00    8.000000e+00    1.826448e+04
    1.772654e+01    3.125667e+00    4.000000e+00   -7.128400e+04
    2.161991e+01    3.629295e+00    4.000000e+00   -5.768765e+04
    2.200000e+01    0.000000e+00    4.000000e+00    7.365697e+03
    1.800000e+01    0.000000e+00    4.000000e+00    1.482309e+04
    1.772654e+01    3.125667e+00    0.000000e+00   -7.128400e+04
    2.161991e+01    3.629295e+00    0.000000e+00   -5.768765e+04
    2.200000e+01    0.000000e+00    0.000000e+00    7.365697e+03
    1.800000e+01    0.000000e+00    0.000000e+00    1.482309e+04
   -4.980973e+01    4.357787e+00    5.600000e+01   -9.621475e+03
   -4.573892e+01    4.102273e+00    5.600000e+01   -2.399592e+03
   -4.600000e+01    0.000000e+00    5.600000e+01   -1.761409e+03
   -5.000000e+01    0.000000e+00    5.600000e+01   -1.977016e+03
   -4.980973e+01    4.357787e+00    5.200000e+01   -3.268548e+03
   -4.573892e+01    4.102273e+00    5.200000e+01   -2.838770e+03
   -4.600000e+01    0.000000e+00    5.200000e+01   -1.965017e+03
   -5.000000e+01    0.000000e+00    5.200000e+01   -2.041067e+03
   -4.980973e+01    4.357787e+00    4.800000e+01   -8.688881e+02
   -4.573892e+01    4.102273e+00    4.800000e+01   -3.050253e+03
   -4.600000e+01    0.000000e+00    4.800000e+01   -2.049223e+03
   -5.000000e+01    0.000000e+00    4.800000e+01   -2.102584e+03
   -4.980973e+01    4.357787e+00    4.400000e+01    4.011602e+01
   -4.573892e+01    4.102273e+00    4.400000e+01   -3.183302e+03
   -4.600000e+01    0.000000e+00    4.400000e+01   -2.095316e+03
   -5.000000e+01    0.000000e+00    4.400000e+01   -2.147956e+03
   -4.980973e+01    4.357787e+00    4.000000e+01    3.387436e+02
   -4.573892e+01    4.102273e+00    4.000000e+01   -3.268227e+03
   -4.600000e+01    0.000000e+00    4.000000e+01   -2.124118e+03
   -5.000000e+01    0.000000e+00    4.000000e+01   -2.184129e+03
   -4.980973e+01    4.357787e+00    3.600000e+01    4.029794e+02
   -4.573892e+01    4.102273e+00    3.600000e+01   -3.316492e+03
   -4.600000e+01    0.000000e+00    3.600000e+01   -2.140485e+03
   -5.000000e+01    0.000000e+00    3.600000e+01   -2.206782e+03
   -4.980973e+01    4.357787e+00    3.200000e+01    4.029000e+02
   -4.573892e+01    4.102273e+00    3.200000e+01   -3.333280e+03
   -4.600000e+01    0.000000e+00    3.200000e+01   -2.146227e+03
   -5.000000e+01    0.000000e+00    3.200000e+01   -2.213879e+03
   -4.980973e+01    4.357787e+00    2.800000e+01    4.072824e+02
   -4.573892e+01    4.102273e+00    2.800000e+01   -3.321070e+03
   -4.600000e+01    0.000000e+00    2.800000e+01   -2.142188e+03
   -5.000000e+01    0.000000e+00    2.800000e+01   -2.205662e+03
   -4.980973e+01    4.357787e+00    2.400000e+01    4.138459e+02
   -4.573892e+01    4.102273e+00    2.400000e+01   -3.280336e+03
   -4.600000e+01    0.000000e+00    2.400000e+01   -2.128733e+03
   -5.000000e+01    0.000000e+00    2.400000e+01   -2.185527e+03
   -4.980973e+01    4.357787e+00    2.000000e+01    3.375556e+02
   -4.573892e+01    4.102273e+00    2.000000e+01   -3.209704e+03
   -4.600000e+01    0.000000e+00    2.000000e+01   -2.105267e+03
   -5.000000e+01    0.000000e+00    2.000000e+01   -2.160603e+03
   -4.980973e+01    4.357787e+00    1.600000e+01   -7.133316e+01
   -4.573892e+01    4.102273e+00    1.600000e+01   -3.105285e+03
   -4.600000e+01    0.000000e+00    1.600000e+01   -2.068128e+03
   -5.000000e+01    0.000000e+00    1.600000e+01   -2.144770e+03
   -4.980973e+01    4.357787e+00    1.200000e+01   -1.432813e+03
   -4.573892e+01    4.102273e+00    1.200000e+01   -2.953401e+03
   -4.600000e+01    0.000000e+00    1.200000e+01   -1.997580e+03
   -5.000000e+01    0.000000e+00    1.200000e+01   -2.154256e+03
   -4.980973e+01    4.357787e+00    8.000000e+00   -4.747034e+03
   -4.573892e+01    4.102273e+00    8.000000e+00   -2.627547e+03
   -4.600000e+01    0.000000e+00    8.000000e+00   -1.836873e+03
   -5.000000e+01    0.000000e+00    8.000000e+00   -2.289800e+03
   -4.980973e+01    4.357787e+00    4.000000e+00   -8.829404e+03
   -4.573892e+01    4.102273e+00    4.000000e+00   -6.366138e+02
   -4.600000e+01    0.000000e+00    4.000000e+00   -1.316352e+03
   -5.000000e+01    0.000000e+00    4.000000e+00   -2.248922e+03
   -4.980973e+01    4.357787e+00    0.000000e+00   -8.829404e+03
   -4.573892e+01    4.102273e+00    0.000000e+00   -6.366138e+02
   -4.600000e+01    0.000000e+00    0.000000e+00   -1.316352e+03
   -5.000000e+01    0.000000e+00    0.000000e+00   -2.248922e+03
    4.600000e+01    0.000000e+00    5.600000e+01    1.328645e+03
    4.571434e+01    4.109567e+00    5.600000e+01   -2.185343e+03
    4.980973e+01    4.357787e+00    5.600000e+01    1.569420e+03
    5.000000e+01    0.000000e+00    5.600000e+01    1.416438e+03
    4.600000e+01    0.000000e+00    5.200000e+01    8.842205e+01
    4.571434e+01    4.109567e+00    5.200000e+01   -2.727681e+03
    4.980973e+01    4.357787e+00    5.200000e+01   -3.393702e+03
    5.000000e+01    0.000000e+00    5.200000e+01   -1.624416e+03
    4.600000e+01    0.000000e+00    4.800000e+01   -3.131503e+02
    4.571434e+01    4.109567e+00    4.800000e+01   -2.958837e+03
    4.980973e+01    4.357787e+00    4.800000e+01   -5.603706e+03
    5.000000e+01    0.000000e+00    4.800000e+01   -2.685287e+03
    4.600000e+01    0.000000e+00    4.400000e+01   -4.609155e+02
    4.571434e+01    4.109567e+00    4.400000e+01   -3.094850e+03
    4.980973e+01    4.357787e+00    4.400000e+01   -6.606623e+03
    5.000000e+01    0.000000e+00    4.400000e+01   -3.067766e+03
    4.600000e+01    0.000000e+00    4.000000e+01   -5.069378e+02
    4.571434e+01    4.109567e+00    4.000000e+01   -3.178298e+03
    4.980973e+01    4.357787e+00    4.000000e+01   -7.047280e+03
    5.000000e+01    0.000000e+00    4.000000e+01   -3.195610e+03
    4.600000e+01    0.000000e+00    3.600000e+01   -5.186686e+02
    4.571434e+01    4.109567e+00    3.600000e+01   -3.225542e+03
    4.980973e+01    4.357787e+00    3.600000e+01   -7.224413e+03
    5.000000e+01    0.000000e+00    3.600000e+01   -3.225428e+03
    4.600000e+01    0.000000e+00    3.200000e+01   -5.280260e+02
    4.571434e+01    4.109567e+00    3.200000e+01   -3.242370e+03
    4.980973e+01    4.357787e+00    3.200000e+01   -7.278701e+03
    5.000000e+01    0.000000e+00    3.200000e+01   -3.223978e+03
    4.600000e+01    0.000000e+00    2.800000e+01   -5.453399e+02
    4.571434e+01    4.109567e+00    2.800000e+01   -3.231620e+03
    4.980973e+01    4.357787e+00    2.800000e+01   -7.270113e+03
    5.000000e+01    0.000000e+00    2.800000e+01   -3.218833e+03
    4.600000e+01    0.000000e+00    2.400000e+01   -5.616935e+02
    4.571434e+01    4.109567e+00    2.400000e+01   -3.194655e+03
    4.980973e+01    4.357787e+00    2.400000e+01   -7.203504e+03
    5.000000e+01    0.000000e+00    2.400000e+01   -3.212573e+03
    4.600000e+01    0.000000e+00    2.000000e+01   -5.415819e+02
    4.571434e+01    4.109567e+00    2.000000e+01   -3.131230e+03
    4.980973e+01    4.357787e+00    2.000000e+01   -7.022568e+03
    5.000000e+01    0.000000e+00    2.000000e+01   -3.177040e+03
    4.600000e+01    0.000000e+00    1.600000e+01   -3.995198e+02
    4.571434e+01    4.109567e+00    1.600000e+01   -3.033853e+03
    4.980973e+01    4.357787e+00    1.600000e+01   -6.556482e+03
    5.000000e+01    0.000000e+00    1.600000e+01   -3.013581e+03
    4.600000e+01    0.000000e+00    1.200000e+01    8.279352e+01
    4.571434e+01    4.109567e+00    1.200000e+01   -2.873006e+03
    4.980973e+01    4.357787e+00    1.200000e+01   -5.369852e+03
    5.000000e+01    0.000000e+00    1.200000e+01   -2.433830e+03
    4.600000e+01    0.000000e+00    8.000000e+00    1.524200e+03
    4.571434e+01    4.109567e+00    8.000000e+00   -2.439121e+03
    4.980973e+01    4.357787e+00    8.000000e+00   -2.681063e+03
    5.000000e+01    0.000000e+00    8.000000e+00   -9.273107e+02
    4.600000e+01    0.000000e+00    4.000000e+00    4.810754e+03
    4.571434e+01    4.109567e+00    4.000000e+00   -5.370552e+02
    4.980973e+01    4.357787e+00    4.000000e+00    2.027468e+03
    5.000000e+01    0.000000e+00    4.000000e+00    2.269121e+03
    4.600000e+01    0.000000e+00    0.000000e+00    4.810754e+03
    4.571434e+01    4.109567e+00    0.000000e+00   -5.370552e+02
    4.980973e+01    4.357787e+00    0.000000e+00    2.027468e+03
    5.000000e+01    0.000000e+00    0.000000e+00    2.269121e+03
   -4.165214e+01    4.015303e+00    5.600000e+01   -2.399592e+03
   -4.200000e+01    0.000000e+00    5.600000e+01   -1.061191e+03
   -4.165214e+01    4.015303e+00    5.200000e+01   -2.838770e+03
   -4.200000e+01    0.000000e+00    5.200000e+01   -1.202818e+03
   -4.165214e+01    4.015303e+00    4.800000e+01   -3.050253e+03
   -4.200000e+01    0.000000e+00    4.800000e+01   -1.217054e+03
   -4.165214e+01    4.015303e+00    4.400000e+01   -3.183302e+03
   -4.200000e+01    0.000000e+00    4.400000e+01   -1.203591e+03
   -4.165214e+01    4.015303e+00    4.000000e+01   -3.268227e+03
   -4.200000e+01    0.000000e+00    4.000000e+01   -1.188407e+03
   -4.165214e+01    4.015303e+00    3.600000e+01   -3.316492e+03
   -4.200000e+01    0.000000e+00    3.600000e+01   -1.179022e+03
   -4.165214e+01    4.015303e+00    3.200000e+01   -3.333280e+03
   -4.200000e+01    0.000000e+00    3.200000e+01   -1.179414e+03
   -4.165214e+01    4.015303e+00    2.800000e+01   -3.321070e+03
   -4.200000e+01    0.000000e+00    2.800000e+01   -1.190455e+03
   -4.165214e+01    4.015303e+00    2.400000e+01   -3.280336e+03
   -4.200000e+01    0.000000e+00    2.400000e+01   -1.210317e+03
   -4.165214e+01    4.015303e+00    2.000000e+01   -3.209704e+03
   -4.200000e+01    0.000000e+00    2.000000e+01   -1.232742e+03
   -4.165214e+01    4.015303e+00    1.600000e+01   -3.105285e+03
   -4.200000e+01    0.000000e+00    1.600000e+01   -1.244490e+03
   -4.165214e+01    4.015303e+00    1.200000e+01   -2.953401e+03
   -4.200000e+01    0.000000e+00    1.200000e+01   -1.201522e+03
   -4.165214e+01    4.015303e+00    8.000000e+00   -2.627547e+03
   -4.200000e+01    0.000000e+00    8.000000e+00   -9.743540e+02
   -4.165214e+01    4.015303e+00    4.000000e+00   -6.366138e+02
   -4.200000e+01    0.000000e+00    4.000000e+00   -4.646790e+02
   -4.165214e+01    4.015303e+00    0.000000e+00   -6.366138e+02
   -4.200000e+01    0.000000e+00    0.000000e+00   -4.646790e+02
    4.523563e+01    8.152204e+00    5.600000e+01   -3.062816e+03
    4.924039e+01    8.682409e+00    5.600000e+01   -2.365553e+03
    4.523563e+01    8.152204e+00    5.200000e+01   -3.918347e+03