TITLE="test case governed by poisson equation"
VARIABLES="x" "y" "z" "u" "v" "w" "sigax"  "sigmay" "sigmaz" "sigmaxy" "sigmayz" "sigmaxz"
ZONE T="flow-field", N=     1519,E=    1080,ET=BRICK, F=FEPOINT
    0.000000e+00     0.000000e+00     0.000000e+00     3.352027e-11    -4.991995e-11    -9.952307e-11     6.589202e+05     6.656268e+05     2.144503e+06    -8.726626e+03     3.017715e+05     1.986261e+05 
    3.333333e-02     0.000000e+00     0.000000e+00     2.605356e-11    -1.136814e-12    -1.041162e-10     2.531177e+05     2.352749e+05     7.596184e+05    -3.770513e+03     1.183155e+05     2.101545e+04 
    6.666667e-02     0.000000e+00     0.000000e+00     2.454958e-11     1.164052e-10    -3.129819e-11     1.761368e+05     1.556393e+05     5.039730e+05    -4.161011e+03     7.975088e+04    -2.174847e+04 
    1.000000e-01     0.000000e+00     0.000000e+00     7.073676e-12    -1.315360e-10     1.327029e-11     9.215033e+04     7.655199e+04     2.480816e+05    -3.476151e+03     3.530218e+04    -4.058470e+04 
    1.333333e-01     0.000000e+00     0.000000e+00     1.652154e-11    -1.000226e-10     2.069656e-10     5.539840e+03    -4.793552e+03    -1.306234e+04    -2.731659e+03    -1.241705e+04    -4.189805e+04 
    1.666667e-01     0.000000e+00     0.000000e+00     3.717597e-11     2.440095e-11    -5.311635e-11    -7.166745e+04    -8.421478e+04    -2.725766e+05    -3.055179e+03    -6.620467e+04    -1.816801e+04 
    2.000000e-01     0.000000e+00     0.000000e+00     1.265526e-11    -3.085969e-11    -1.594644e-11    -2.149298e+05    -2.296870e+05    -7.225456e+05    -3.396037e+03    -1.745892e+05    -9.574099e+03 
    0.000000e+00     3.333333e-02     0.000000e+00     2.658893e-11    -8.136128e-11    -9.806472e-12     2.619038e+05     2.901518e+05     8.590105e+05    -3.461078e+03     8.356476e+04     1.129484e+05 
    3.333333e-02     3.333333e-02     0.000000e+00    -8.223514e-11    -8.273094e-11    -8.546161e-11     9.232654e+04     9.390662e+04     2.779389e+05    -2.127087e+03     3.364891e+04     2.369655e+04 
    6.666667e-02     3.333333e-02     0.000000e+00    -9.686768e-11     9.647459e-11     1.179861e-12     5.838324e+04     5.622679e+04     1.663249e+05    -1.795758e+03     2.193270e+04     6.126560e+03 
    1.000000e-01     3.333333e-02     0.000000e+00    -2.720832e-10    -1.987291e-11    -2.250173e-11     2.255919e+04     1.922315e+04     5.706469e+04    -1.458986e+03     8.225972e+03    -3.036122e+02 
    1.333333e-01     3.333333e-02     0.000000e+00     1.281481e-10     6.171651e-11     8.789445e-11    -1.355563e+04    -1.830530e+04    -5.271307e+04    -1.217812e+03    -7.364287e+03     2.149766e+03 
    1.666667e-01     3.333333e-02     0.000000e+00    -5.273814e-10     7.073591e-11    -6.244735e-11    -4.437245e+04    -5.649730e+04    -1.693804e+05    -1.101201e+03    -2.685378e+04     1.481495e+04 
    2.000000e-01     3.333333e-02     0.000000e+00     1.011281e-10    -1.931163e-11    -3.175338e-11    -1.285284e+05    -1.496442e+05    -4.347227e+05    -5.275856e+02    -7.024005e+04     4.701732e+04 
    0.000000e+00     6.666667e-02     0.000000e+00    -1.545344e-10     7.233480e-12     3.809088e-11     2.307223e+05     2.650313e+05     7.556447e+05    -3.090786e+03     3.663861e+04     1.102594e+05 
    3.333333e-02     6.666667e-02     0.000000e+00    -5.716349e-11    -5.038888e-12    -2.922817e-11     7.467683e+04     7.899492e+04     2.237691e+05    -1.650721e+03     1.710098e+04     2.665010e+04 
    6.666667e-02     6.666667e-02     0.000000e+00     1.581319e-10    -1.258659e-10    -3.692043e-11     4.018012e+04     4.048325e+04     1.128290e+05    -1.146503e+03     1.186606e+04     1.253776e+04 
    1.000000e-01     6.666667e-02     0.000000e+00     1.195753e-10     3.703438e-11    -1.120845e-11     4.173149e+03     2.557496e+03     5.087802e+03    -7.907693e+02     4.724780e+03     8.833364e+03 
    1.333333e-01     6.666667e-02     0.000000e+00    -1.757902e-11    -1.645986e-11    -9.309095e-11    -3.064870e+04    -3.542927e+04    -1.034084e+05    -3.767948e+02    -4.160328e+03     1.418597e+04 
    1.666667e-01     6.666667e-02     0.000000e+00    -3.196028e-10    -2.251455e-10     1.147562e-10    -6.212605e+04    -7.736829e+04    -2.284363e+05    -4.583811e+02    -1.696956e+04     2.897509e+04 
    2.000000e-01     6.666667e-02     0.000000e+00    -2.211450e-12    -1.514426e-11    -3.027407e-11    -1.723426e+05    -2.004277e+05    -5.714830e+05     5.216422e+02    -4.557782e+04     8.047089e+04 
    0.000000e+00     1.000000e-01     0.000000e+00    -3.524658e-11     9.722481e-11     6.287067e-10     1.981434e+05     2.293037e+05     6.495347e+05    -2.403761e+03     2.028654e+03     9.774211e+04 
    3.333333e-02     1.000000e-01     0.000000e+00     5.586097e-11    -7.425436e-11    -2.257449e-11     5.736598e+04     6.177575e+04     1.728299e+05    -9.536207e+02     6.326135e+03     2.526169e+04 
    6.666667e-02     1.000000e-01     0.000000e+00    -1.620426e-10    -1.000867e-10     4.603026e-11     2.215775e+04     2.295804e+04     6.159939e+04    -1.025763e+02     6.910864e+03     1.469887e+04 
    1.000000e-01     1.000000e-01     0.000000e+00    -1.296188e-10     2.946133e-10     6.999571e-12    -1.374145e+04    -1.478872e+04    -4.572968e+04     9.124495e+01     5.589943e+03     1.380740e+04 
    1.333333e-01     1.000000e-01     0.000000e+00     1.964547e-10     2.541421e-12    -2.686841e-11    -4.781164e+04    -5.207789e+04    -1.543641e+05     3.034574e+02     2.568944e+03     2.179093e+04 
    1.666667e-01     1.000000e-01     0.000000e+00     6.980324e-12    -7.856222e-11    -2.624101e-11    -7.931058e+04    -9.558992e+04    -2.855586e+05    -4.900713e+01    -4.252364e+03     3.948498e+04 
    2.000000e-01     1.000000e-01     0.000000e+00     4.897899e-11    -8.822313e-11     1.433295e-10    -2.120885e+05    -2.420425e+05    -6.984793e+05     1.193389e+03    -1.593460e+04     1.058813e+05 
    0.000000e+00     1.333333e-01     0.000000e+00    -1.524395e-10     1.721873e-11    -4.087364e-12     1.618182e+05     1.841613e+05     5.335150e+05    -1.219805e+03    -2.785487e+04     7.787101e+04 
    3.333333e-02     1.333333e-01     0.000000e+00    -1.616598e-10     6.451121e-11    -5.361237e-11     4.014200e+04     4.325228e+04     1.216354e+05    -2.975325e+01    -1.745850e+03     1.989739e+04 
    6.666667e-02     1.333333e-01     0.000000e+00     2.761246e-11    -9.430062e-11     2.166563e-10     4.314797e+03     5.943402e+03     1.040762e+04     6.145848e+02     5.462245e+03     1.294461e+04 
    1.000000e-01     1.333333e-01     0.000000e+00     3.824072e-11     1.713897e-11    -2.655940e-12    -3.187759e+04    -3.058116e+04    -9.710230e+04     1.036937e+03     1.106185e+04     1.495638e+04 
    1.333333e-01     1.333333e-01     0.000000e+00    -9.370239e-11     1.283987e-11    -7.708146e-11    -6.483249e+04    -6.648857e+04    -2.060018e+05     1.133622e+03     1.464238e+04     2.575528e+04 
    1.666667e-01     1.333333e-01     0.000000e+00     1.137682e-11     1.607352e-10    -7.493450e-11    -9.567696e+04    -1.095313e+05    -3.407906e+05     3.197446e+02     1.461760e+04     4.612514e+04 
    2.000000e-01     1.333333e-01     0.000000e+00     2.580265e-11     2.678520e-11     5.238832e-13    -2.474654e+05    -2.715855e+05    -8.160966e+05     1.430235e+03     2.673011e+04     1.224982e+05 
    0.000000e+00     1.666667e-01     0.000000e+00    -5.129989e-11    -2.592480e-10    -1.872789e-10     1.260609e+05     1.340423e+05     4.193294e+05    -1.242525e+03    -5.250694e+04     4.409130e+04 
    3.333333e-02     1.666667e-01     0.000000e+00     1.600408e-10     8.008713e-11     5.093816e-11     2.218203e+04     2.417487e+04     6.980194e+04    -3.656389e+02    -6.671957e+03     7.306380e+03 
    6.666667e-02     1.666667e-01     0.000000e+00     9.032782e-11     1.245007e-10    -9.131002e-11    -1.561434e+04    -1.106420e+04    -4.743524e+04     1.615541e+02     7.930321e+03     4.432228e+03 
    1.000000e-01     1.666667e-01     0.000000e+00     2.022155e-10    -1.525892e-10     1.750747e-11    -5.247353e+04    -4.442733e+04    -1.596625e+05     4.438054e+02     2.131577e+04     9.219900e+03 
    1.333333e-01     1.666667e-01     0.000000e+00     3.012021e-11    -1.877220e-10     5.639119e-11    -8.570443e+04    -7.789519e+04    -2.724262e+05     5.156860e+02     3.255129e+04     2.283625e+04 
    1.666667e-01     1.666667e-01     0.000000e+00    -7.995325e-11    -1.042318e-10     3.504425e-11    -1.159731e+05    -1.183664e+05    -4.106506e+05     2.697923e+02     4.072217e+04     4.638071e+04 
    2.000000e-01     1.666667e-01     0.000000e+00     8.590610e-11    -2.262182e-11    -4.776295e-11    -2.882450e+05    -2.873347e+05    -9.583624e+05     1.506120e+03     8.533398e+04     1.254961e+05 
    0.000000e+00     2.000000e-01     0.000000e+00     2.248763e-11    -1.195035e-11    -1.626412e-12     2.389499e+05     2.486781e+05     7.871424e+05     3.422109e+03    -1.281965e+05     5.542571e+04 
    3.333333e-02     2.000000e-01     0.000000e+00     1.957739e-11     1.480535e-10     3.583477e-10     3.240930e+04     3.471784e+04     1.061190e+05     2.105461e+03    -1.596202e+04     7.428888e+02 
    6.666667e-02     2.000000e-01     0.000000e+00     9.447606e-12    -4.500228e-11     1.124276e-12    -5.093427e+04    -4.295253e+04    -1.445787e+05     3.319631e+03     2.193151e+04    -2.300470e+03 
    1.000000e-01     2.000000e-01     0.000000e+00    -4.563864e-11     1.035155e-10     2.777183e-10    -1.297328e+05    -1.149903e+05    -3.816579e+05     3.635172e+03     5.719227e+04     9.168382e+03 
    1.333333e-01     2.000000e-01     0.000000e+00     2.793822e-11    -1.308843e-10    -1.710475e-12    -2.005273e+05    -1.863751e+05    -6.176829e+05     3.482802e+03     8.773420e+04     3.854569e+04 
    1.666667e-01     2.000000e-01     0.000000e+00     7.882286e-12     2.785842e-11     7.196633e-11    -2.636091e+05    -2.703289e+05    -9.016252e+05     3.388063e+03     1.118185e+05     8.856144e+04 
    2.000000e-01     2.000000e-01     0.000000e+00     3.006638e-11    -1.808010e-11     2.494672e-11    -6.409955e+05    -6.430410e+05    -2.080124e+06     8.709198e+03     2.372113e+05     2.446358e+05 
    0.000000e+00     0.000000e+00     3.333333e-02     1.443307e-07     1.963758e-07     3.483732e-07    -1.401678e+04    -7.108335e+03     8.363190e+05    -1.029345e+04     2.466192e+04    -1.142574e+03 
    3.333333e-02     0.000000e+00     3.333333e-02     4.872874e-08     1.623663e-07     2.520784e-07     2.882323e+04     1.082087e+04     3.363284e+05    -5.764537e+03     8.824571e+03     1.239649e+04 
    6.666667e-02     0.000000e+00     3.333333e-02     1.009112e-09     1.204004e-07     1.778099e-07     3.006850e+04     6.269981e+03     2.215258e+05    -5.987197e+03     7.388084e+03     6.543376e+03 
    1.000000e-01     0.000000e+00     3.333333e-02    -2.234572e-08     7.051006e-08     1.041921e-07     2.433673e+04     4.476238e+03     1.128957e+05    -5.358158e+03     5.480360e+03     8.391713e+02 
    1.333333e-01     0.000000e+00     3.333333e-02    -2.926622e-08     1.667477e-08     2.949931e-08     1.836973e+04     3.372119e+03     4.514156e+03    -4.336752e+03     2.658128e+03    -3.329853e+03 
    1.666667e-01     0.000000e+00     3.333333e-02    -1.961178e-08    -3.960174e-08    -4.887034e-08     1.909790e+04     4.151120e+03    -1.012805e+05    -3.924994e+03    -4.320666e+03    -3.401141e+03 
    2.000000e-01     0.000000e+00     3.333333e-02     1.227861e-08    -1.015718e-07    -1.179348e-07     1.003881e+04    -3.845788e+03    -2.842697e+05    -3.716515e+03    -1.788823e+04    -1.006286e+04 
    0.000000e+00     3.333333e-02     3.333333e-02     1.569272e-07     1.023116e-07     2.718747e-07     1.200624e+04     4.203060e+04     3.953221e+05    -5.113639e+03     3.432610e+04     8.256604e+03 
    3.333333e-02     3.333333e-02     3.333333e-02     7.220059e-08     8.768370e-08     1.785978e-07     2.015772e+04     2.221743e+04     1.526715e+05    -3.398311e+03     1.369757e+04     1.239857e+04 
    6.666667e-02     3.333333e-02     3.333333e-02     3.162428e-08     6.449421e-08     1.175241e-07     1.661558e+04     1.334873e+04     9.097657e+04    -3.127229e+03     1.038549e+04     1.032433e+04 
    1.000000e-01     3.333333e-02     3.333333e-02     1.351359e-08     3.699771e-08     5.853002e-08     9.785107e+03     4.923989e+03     3.219931e+04    -2.587360e+03     6.314306e+03     8.529392e+03 
    1.333333e-01     3.333333e-02     3.333333e-02     1.079707e-08     6.376548e-09     9.569649e-11     4.059264e+03    -3.173883e+03    -2.686412e+04    -1.953289e+03     1.202415e+03     7.583308e+03 
    1.666667e-01     3.333333e-02     3.333333e-02     2.540648e-08    -2.735532e-08    -5.947165e-08     5.116643e+03    -8.799293e+03    -8.308772e+04    -1.666117e+03    -6.173994e+03     4.226483e+03 
    2.000000e-01     3.333333e-02     3.333333e-02     6.657665e-08    -6.909774e-08    -1.275426e-07    -5.442582e+03    -2.788693e+04    -2.081400e+05    -8.777204e+02    -1.899652e+04     7.209628e+03 
    0.000000e+00     6.666667e-02     3.333333e-02     1.568258e-07     5.201578e-08     2.438352e-07     7.075412e+03     4.707065e+04     3.368632e+05    -4.694219e+03     2.501792e+04     1.140840e+04 
    3.333333e-02     6.666667e-02     3.333333e-02     7.798502e-08     4.939800e-08     1.476533e-07     1.606375e+04     2.230447e+04     1.220174e+05    -2.595690e+03     1.119145e+04     1.524515e+04 
    6.666667e-02     6.666667e-02     3.333333e-02     4.340291e-08     3.816149e-08     8.723280e-08     1.167494e+04     1.190532e+04     6.126741e+04    -1.934528e+03     9.245923e+03     1.411048e+04 
    1.000000e-01     6.666667e-02     3.333333e-02     3.010859e-08     2.332466e-08     2.990415e-08     4.922247e+03     2.095831e+03     3.997250e+03    -1.255723e+03     6.460791e+03     1.312882e+04 
    1.333333e-01     6.666667e-02     3.333333e-02     3.225206e-08     5.667258e-09    -2.696957e-08     2.057216e+02    -7.294591e+03    -5.392280e+04    -7.469023e+02     2.634831e+03     1.262359e+04 
    1.666667e-01     6.666667e-02     3.333333e-02     5.275870e-08    -1.558041e-08    -8.627383e-08     5.737386e+03    -1.269971e+04    -1.077984e+05    -8.479258e+02    -2.869848e+03     6.368665e+03 
    2.000000e-01     6.666667e-02     3.333333e-02     1.076147e-07    -4.570104e-08    -1.693114e-07    -3.768402e+03    -3.615161e+04    -2.556551e+05     4.751713e+02    -1.046616e+04     1.104674e+04 
    0.000000e+00     1.000000e-01     3.333333e-02     1.447977e-07     1.772679e-08     2.155199e-07     5.700884e+03     4.278776e+04     2.880615e+05    -3.466121e+03     1.400304e+04     1.304398e+04 
    3.333333e-02     1.000000e-01     3.333333e-02     7.546605e-08     2.511808e-08     1.203974e-07     1.237331e+04     1.861674e+04     9.471091e+04    -1.469451e+03     7.961203e+03     1.587237e+04 
    6.666667e-02     1.000000e-01     3.333333e-02     4.729054e-08     2.371338e-08     5.994231e-08     7.119376e+03     8.469764e+03     3.414453e+04    -5.576946e+02     7.836389e+03     1.561855e+04 
    1.000000e-01     1.000000e-01     3.333333e-02     3.908724e-08     1.908576e-08     3.084626e-09     3.080581e+02    -1.028880e+03    -2.291285e+04     1.690806e+02     6.772186e+03     1.540636e+04 
    1.333333e-01     1.000000e-01     3.333333e-02     4.597414e-08     1.175201e-08    -5.367895e-08    -3.443708e+03    -1.002676e+04    -8.093836e+04     5.127123e+02     4.708023e+03     1.540174e+04 
    1.666667e-01     1.000000e-01     3.333333e-02     7.256352e-08     6.080189e-10    -1.139489e-07     5.507408e+03    -1.397972e+04    -1.340578e+05    -4.944491e+01     1.259069e+03     7.566918e+03 
    2.000000e-01     1.000000e-01     3.333333e-02     1.391898e-07    -1.971567e-08    -2.074223e-07    -3.699881e+03    -3.798391e+04    -3.071401e+05     1.737413e+03    -5.764434e+02     1.314683e+04 
    0.000000e+00     1.333333e-01     3.333333e-02     1.245924e-07    -1.061309e-08     1.847622e-07     4.822193e+03     3.074561e+04     2.393754e+05    -2.409019e+03     3.268934e+03     1.294896e+04 
    3.333333e-02     1.333333e-01     3.333333e-02     6.638552e-08     6.841249e-09     9.391057e-08     8.430896e+03     1.295029e+04     6.701043e+04    -3.026772e+02     5.005431e+03     1.459544e+04 
    6.666667e-02     1.333333e-01     3.333333e-02     4.513523e-08     1.600227e-08     3.334027e-08     2.514206e+03     4.885067e+03     6.669347e+03     7.564193e+02     6.555515e+03     1.517591e+04 
    1.000000e-01     1.333333e-01     3.333333e-02     4.213401e-08     2.202517e-08    -2.360236e-08    -4.053972e+03    -2.346136e+03    -5.033076e+04     1.399049e+03     7.159045e+03     1.578046e+04 
    1.333333e-01     1.333333e-01     3.333333e-02     5.380423e-08     2.527822e-08    -8.090777e-08    -6.686272e+03    -9.056557e+03    -1.084326e+05     1.460516e+03     6.871541e+03     1.636932e+04 
    1.666667e-01     1.333333e-01     3.333333e-02     8.589904e-08     2.448491e-08    -1.423435e-07     5.009589e+03    -1.004753e+04    -1.609118e+05     4.026602e+02     5.476698e+03     7.838804e+03 
    2.000000e-01     1.333333e-01     3.333333e-02     1.626535e-07     1.456843e-08    -2.431711e-07    -3.747434e+03    -2.802238e+04    -3.597849e+05     2.039421e+03     9.511394e+03     1.357401e+04 
    0.000000e+00     1.666667e-01     3.333333e-02     9.430932e-08    -3.911856e-08     1.478487e-07     2.154807e+02     9.304178e+03     1.803505e+05    -2.617766e+03     2.766381e+03     9.556320e+03 
    3.333333e-02     1.666667e-01     3.333333e-02     4.988344e-08    -8.389202e-09     6.614897e-08     3.385899e+03     6.477069e+03     3.625778e+04    -4.686023e+02     3.465457e+03     1.074667e+04 
    6.666667e-02     1.666667e-01     3.333333e-02     3.582054e-08     1.427763e-08     5.311292e-09    -1.243358e+03     4.491047e+03    -2.060318e+04     3.965117e+02     3.623070e+03     1.242061e+04 
    1.000000e-01     1.666667e-01     3.333333e-02     3.801363e-08     3.409875e-08    -5.210178e-08    -5.613978e+03     3.094039e+03    -7.469032e+04     7.889101e+02     3.388865e+03     1.402519e+04 
    1.333333e-01     1.666667e-01     3.333333e-02     5.410985e-08     5.088794e-08    -1.098329e-07    -5.533815e+03     1.771818e+03    -1.300926e+05     6.150192e+02     2.702643e+03     1.538717e+04 
    1.666667e-01     1.666667e-01     3.333333e-02     9.120780e-08     6.316789e-08    -1.719592e-07     8.875366e+03     5.834841e+03    -1.802737e+05    -7.702308e+01     1.605717e+03     7.159729e+03 
    2.000000e-01     1.666667e-01     3.333333e-02     1.738272e-07     6.681532e-08    -2.760107e-07     5.642696e+03     7.646980e+03    -3.968848e+05     1.154394e+03     2.355841e+03     1.223169e+04 
    0.000000e+00     2.000000e-01     3.333333e-02     4.779130e-08    -7.686725e-08     1.275435e-07    -8.041770e+03     2.709593e+01     3.072361e+05     3.616942e+03     5.578253e+03     1.366531e+04 
    3.333333e-02     2.000000e-01     3.333333e-02     1.595157e-08    -2.274131e-08     4.482346e-08    -2.133013e+02     3.021214e+03     4.639092e+04     3.300141e+03     6.698351e+03     1.746328e+04 
    6.666667e-02     2.000000e-01     3.333333e-02     8.310374e-09     2.252703e-08    -2.875716e-08    -8.645045e+03     6.716301e+02    -6.274958e+04     4.980675e+03     6.651943e+03     2.185339e+04 
    1.000000e-01     2.000000e-01     3.333333e-02     1.519975e-08     6.486981e-08    -9.616762e-08    -1.558605e+04    -3.294555e+02    -1.667477e+05     5.618149e+03     5.739004e+03     2.584175e+04 
    1.333333e-01     2.000000e-01     3.333333e-02     3.606899e-08     1.034885e-07    -1.624085e-07    -1.337351e+04    -1.135524e+03    -2.734765e+05     4.898931e+03     4.071944e+03     2.923603e+04 
    1.666667e-01     2.000000e-01     3.333333e-02     7.870536e-08     1.347391e-07    -2.316463e-07     1.709958e+04     8.401652e+03    -3.707896e+05     3.888620e+03     1.640367e+03     1.340026e+04 
    2.000000e-01     2.000000e-01     3.333333e-02     1.691511e-07     1.608598e-07    -3.387284e-07     1.037768e+04     9.152482e+03    -8.133334e+05     1.039412e+04     1.011329e+03     2.223174e+04 
    0.000000e+00     0.000000e+00     6.666667e-02     2.470138e-07     3.004379e-07     6.552615e-07     1.522822e+04     1.452891e+04     8.224427e+05    -5.439869e+03     1.708152e+04     5.856598e+03 
    3.333333e-02     0.000000e+00     6.666667e-02     1.665143e-07     2.567583e-07     5.018880e-07     7.255849e+03     6.159923e+03     3.146576e+05    -5.446009e+03     5.129386e+03     5.664117e+03 
    6.666667e-02     0.000000e+00     6.666667e-02     1.038701e-07     2.004330e-07     3.505649e-07     1.544960e+04     7.723581e+03     2.159346e+05    -5.974496e+03     5.426418e+03     9.838692e+03 
    1.000000e-01     0.000000e+00     6.666667e-02     6.801740e-08     1.353305e-07     2.070729e-07     1.743982e+04     6.680741e+03     1.114534e+05    -5.542409e+03     5.682595e+03     8.051709e+03 
    1.333333e-01     0.000000e+00     6.666667e-02     5.491129e-08     6.328200e-08     6.319985e-08     1.619932e+04     5.909543e+03     8.028111e+03    -4.590131e+03     5.385689e+03     3.936530e+03 
    1.666667e-01     0.000000e+00     6.666667e-02     6.115671e-08    -1.506023e-08    -8.439912e-08     1.083444e+04     4.249784e+03    -9.772768e+04    -3.575634e+03     2.169310e+03     4.037752e+03 
    2.000000e-01     0.000000e+00     6.666667e-02     8.310234e-08    -1.024466e-07    -2.228776e-07    -7.336706e+03    -3.473189e+03    -2.801679e+05    -2.090982e+03    -7.572225e+02     7.397498e+03 
    0.000000e+00     3.333333e-02     6.666667e-02     2.790693e-07     2.160038e-07     5.585176e-07     8.224610e+03     1.251255e+04     3.749219e+05    -4.874701e+03     2.054792e+04     7.479777e+03 
    3.333333e-02     3.333333e-02     6.666667e-02     2.035895e-07     1.898519e-07     4.061088e-07     4.718294e+03     5.474638e+03     1.384138e+05    -3.398496e+03     7.729760e+03     7.608219e+03 
    6.666667e-02     3.333333e-02     6.666667e-02     1.489797e-07     1.524408e-07     2.643646e-07     7.303772e+03     4.596589e+03     8.590359e+04    -3.502145e+03     6.567414e+03     1.034397e+04 
    1.000000e-01     3.333333e-02     6.666667e-02     1.207042e-07     1.067144e-07     1.318131e-07     6.953569e+03     2.665492e+03     3.048910e+04    -2.988632e+03     5.356204e+03     9.970540e+03 
    1.333333e-01     3.333333e-02     6.666667e-02     1.147823e-07     5.499924e-08     1.160852e-10     6.480515e+03     1.071740e+03    -2.430216e+04    -2.241546e+03     3.267565e+03     7.857904e+03 
    1.666667e-01     3.333333e-02     6.666667e-02     1.304780e-07    -2.752912e-09    -1.353075e-07     4.746618e+03    -1.084659e+03    -7.892065e+04    -1.581916e+03    -8.252500e+02     5.063021e+03 
    2.000000e-01     3.333333e-02     6.666667e-02     1.661052e-07    -6.815960e-08    -2.734018e-07    -5.478281e+03    -9.726943e+03    -2.001887e+05    -1.063110e+03    -5.756510e+03     9.586155e+03 
    0.000000e+00     6.666667e-02     6.666667e-02     2.876303e-07     1.423349e-07     4.880848e-07     1.029449e+04     2.304454e+04     3.310277e+05    -4.517658e+03     2.479859e+04     1.037490e+04 
    3.333333e-02     6.666667e-02     6.666667e-02     2.199806e-07     1.339369e-07     3.322265e-07     4.874785e+03     8.880886e+03     1.149966e+05    -2.848546e+03     1.035418e+04     1.070831e+04 
    6.666667e-02     6.666667e-02     6.666667e-02     1.729623e-07     1.145030e-07     1.938687e-07     6.559430e+03     6.419754e+03     6.116860e+04    -2.396161e+03     8.800257e+03     1.408272e+04 
    1.000000e-01     6.666667e-02     6.666667e-02     1.523605e-07     8.811987e-08     6.655136e-08     5.661289e+03     2.706168e+03     4.615495e+03    -1.689945e+03     6.834745e+03     1.395039e+04 
    1.333333e-01     6.666667e-02     6.666667e-02     1.545608e-07     5.624299e-08    -5.999822e-08     5.673713e+03    -4.129213e+02    -5.087743e+04    -1.068508e+03     3.938839e+03     1.112045e+04 
    1.666667e-01     6.666667e-02     6.666667e-02     1.805665e-07     1.805782e-08    -1.941833e-07     3.991487e+03    -4.156507e+03    -1.050581e+05    -8.451932e+02    -3.641650e+02     5.979132e+03 
    2.000000e-01     6.666667e-02     6.666667e-02     2.271124e-07    -2.856974e-08    -3.422260e-07    -6.749611e+03    -1.671427e+04    -2.508236e+05     2.679111e+02    -4.339158e+03     1.139257e+04 
    0.000000e+00     1.000000e-01     6.666667e-02     2.799387e-07     8.684138e-08     4.290032e-07     8.990889e+03     2.250260e+04     2.816865e+05    -3.644061e+03     2.082223e+04     1.226683e+04 
    3.333333e-02     1.000000e-01     6.666667e-02     2.206358e-07     9.397408e-08     2.710026e-07     3.856797e+03     8.299225e+03     8.884464e+04    -1.717820e+03     9.538781e+03     1.238193e+04 
    6.666667e-02     1.000000e-01     6.666667e-02     1.825582e-07     9.100606e-08     1.332506e-07     4.800402e+03     5.822971e+03     3.444450e+04    -9.032718e+02     8.540503e+03     1.600068e+04 
    1.000000e-01     1.000000e-01     6.666667e-02     1.700231e-07     8.165541e-08     6.949811e-09     3.981543e+03     2.360427e+03    -2.193390e+04    -1.371206e+02     6.927530e+03     1.601655e+04 
    1.333333e-01     1.000000e-01     6.666667e-02     1.804067e-07     6.699780e-08    -1.192390e-07     4.951513e+03    -3.485753e+02    -7.690673e+04     2.180987e+02     4.483882e+03     1.265709e+04 
    1.666667e-01     1.000000e-01     6.666667e-02     2.160413e-07     4.567871e-08    -2.564491e-07     3.943513e+03    -3.572808e+03    -1.299354e+05    -2.307020e+02     1.098637e+03     6.293148e+03 
    2.000000e-01     1.000000e-01     6.666667e-02     2.729145e-07     1.448698e-08    -4.134710e-07    -6.144694e+03    -1.476173e+04    -2.990271e+05     1.191316e+03    -4.497856e+02     1.200440e+04 
    0.000000e+00     1.333333e-01     6.666667e-02     2.575986e-07     4.088617e-08     3.689509e-07     7.457606e+03     1.480306e+04     2.315768e+05    -2.834645e+03     1.560905e+04     1.342245e+04 
    3.333333e-02     1.333333e-01     6.666667e-02     2.086216e-07     6.375193e-08     2.114796e-07     2.827649e+03     5.948682e+03     6.216131e+04    -7.404396e+02     7.700916e+03     1.283199e+04 
    6.666667e-02     1.333333e-01     6.666667e-02     1.804795e-07     7.787758e-08     7.413169e-08     3.150881e+03     4.887211e+03     7.780525e+03     3.083919e+02     6.897729e+03     1.640124e+04 
    1.000000e-01     1.333333e-01     6.666667e-02     1.763865e-07     8.596511e-08    -5.253541e-08     2.609862e+03     3.157163e+03    -4.767803e+04     9.719051e+02     5.439766e+03     1.661098e+04 
    1.333333e-01     1.333333e-01     6.666667e-02     1.946181e-07     8.859906e-08    -1.797417e-07     4.599527e+03     2.201808e+03    -1.015856e+05     9.139642e+02     3.377083e+03     1.307303e+04 
    1.666667e-01     1.333333e-01     6.666667e-02     2.389518e-07     8.407190e-08    -3.202022e-07     4.346093e+03     6.793397e+02    -1.534825e+05    -8.162958e+01     7.892241e+02     6.221798e+03 
    2.000000e-01     1.333333e-01     6.666667e-02     3.042151e-07     6.864957e-08    -4.835493e-07    -4.500925e+03    -4.607547e+03    -3.449759e+05     1.293665e+03    -3.125639e+02     1.195053e+04 
    0.000000e+00     1.666667e-01     6.666667e-02     2.195903e-07    -2.440840e-09     3.058488e-07     7.229609e+03     9.462148e+03     1.760488e+05    -3.353547e+03     1.018113e+04     1.376136e+04 
    3.333333e-02     1.666667e-01     6.666667e-02     1.819392e-07     3.980669e-08     1.504865e-07     1.646122e+03     4.156308e+03     3.350733e+04    -6.558071e+02     4.826873e+03     1.228259e+04 
    6.666667e-02     1.666667e-01     6.666667e-02     1.646624e-07     7.395389e-08     1.193026e-08     1.119855e+03     3.690431e+03    -1.914151e+04     1.412826e+02     3.846951e+03     1.584475e+04 
    1.000000e-01     1.666667e-01     6.666667e-02     1.690418e-07     1.021239e-07    -1.172445e-07     1.009863e+03     2.787751e+03    -7.215075e+04     4.490099e+02     2.610273e+03     1.647408e+04 
    1.333333e-01     1.666667e-01     6.666667e-02     1.946944e-07     1.243991e-07    -2.470762e-07     3.744069e+03     2.683127e+03    -1.238495e+05     1.792443e+02     1.181331e+03     1.315778e+04 
    1.666667e-01     1.666667e-01     6.666667e-02     2.461777e-07     1.384163e-07    -3.909371e-07     3.698578e+03     1.880361e+03    -1.743459e+05    -9.707412e+02    -3.148064e+02     6.336321e+03 
    2.000000e-01     1.666667e-01     6.666667e-02     3.189631e-07     1.414126e-07    -5.586689e-07    -5.640324e+03    -1.991974e+03    -3.863975e+05    -8.159461e+02    -1.565678e+03     1.241067e+04 
    0.000000e+00     2.000000e-01     6.666667e-02     1.591502e-07    -3.969110e-08     2.399706e-07     8.397205e+03     2.409932e+03     3.031117e+05     1.880873e+03     1.976685e+04     2.746211e+04 
    3.333333e-02     2.000000e-01     6.666667e-02     1.357500e-07     2.481256e-08     8.426128e-08    -1.438789e+03    -3.473363e+02     4.287919e+04     2.693464e+03     9.369880e+03     2.388532e+04 
    6.666667e-02     2.000000e-01     6.666667e-02     1.286229e-07     7.985934e-08    -5.863418e-08    -2.450616e+03    -3.387372e+02    -5.932470e+04     4.185221e+03     7.383772e+03     3.122126e+04 
    1.000000e-01     2.000000e-01     6.666667e-02     1.403964e-07     1.283134e-07    -1.915339e-07    -1.318620e+03    -7.318410e+02    -1.619876e+05     4.656623e+03     4.947758e+03     3.293250e+04 
    1.333333e-01     2.000000e-01     6.666667e-02     1.733466e-07     1.699587e-07    -3.238307e-07     5.417596e+03     3.130593e+02    -2.624724e+05     4.060302e+03     2.148578e+03     2.663133e+04 