TITLE="test case governed by poisson equation"
VARIABLES="x" "y" "u" "v" "sigax"  "sigmay" "sigmaxy"
ZONE T="flow-field", N=     3544,E=    3403,ET=QUADRILATERAL, F=FEPOINT
    9.800000e+02    0.000000e+00   -1.862691e-05   -7.828742e-05   -4.063151e+02   -2.241538e+02   -1.930027e+02
    9.600000e+02    0.000000e+00   -1.856566e-05   -7.515276e-05   -1.279631e+03   -1.738559e+02   -2.557754e+02
    9.300000e+02    0.000000e+00   -1.827546e-05   -7.048414e-05   -2.615025e+03   -1.358408e+00   -1.819783e+02
    9.100000e+02    0.000000e+00   -1.797321e-05   -6.749790e-05   -3.193306e+03    1.152131e+01   -1.076336e+02
    8.900000e+02    0.000000e+00   -1.762282e-05   -6.465010e-05   -3.501887e+03    1.147361e+01   -4.702273e+01
    8.700000e+02    0.000000e+00   -1.725171e-05   -6.194519e-05   -3.604356e+03    6.373973e+00   -2.422610e+00
    8.500000e+02    0.000000e+00   -1.687942e-05   -5.937500e-05   -3.560279e+03   -6.448089e-01    2.782833e+01
    8.300000e+02    0.000000e+00   -1.651850e-05   -5.692483e-05   -3.413641e+03   -6.366693e+00    2.153732e+02
    8.000000e+02    0.000000e+00   -1.601239e-05   -5.343882e-05   -3.102906e+03    8.406508e+00    6.509299e+01
    7.800000e+02    0.000000e+00   -1.570087e-05   -5.121625e-05   -2.959639e+03    3.873084e+00    6.016473e+01
    7.600000e+02    0.000000e+00   -1.540971e-05   -4.905990e-05   -2.815972e+03    4.053667e+00    4.540584e+01
    7.400000e+02    0.000000e+00   -1.513565e-05   -4.695699e-05   -2.683262e+03    3.623252e+00    3.388755e+01
    7.200000e+02    0.000000e+00   -1.487450e-05   -4.489899e-05   -2.582276e+03    1.446039e+00    2.357034e+01
    7.000000e+02    0.000000e+00   -1.462219e-05   -4.287984e-05   -2.519983e+03    4.466060e+00    7.618918e+01
    6.700000e+02    0.000000e+00   -1.425191e-05   -3.991512e-05   -2.500269e+03    3.074020e-01    2.951100e-02
    6.500000e+02    0.000000e+00   -1.400543e-05   -3.797834e-05   -2.521582e+03    2.667319e-01   -7.229761e+00
    6.300000e+02    0.000000e+00   -1.375580e-05   -3.607220e-05   -2.567162e+03    7.662503e-01   -1.386181e+01
    6.100000e+02    0.000000e+00   -1.350048e-05   -3.419704e-05   -2.631371e+03   -1.408449e-01   -1.962895e+01
    5.900000e+02    0.000000e+00   -1.323764e-05   -3.235377e-05   -2.711370e+03   -1.092415e+00   -2.441162e+01
    5.700000e+02    0.000000e+00   -1.296571e-05   -3.054322e-05   -2.798435e+03   -3.660626e+01    3.564227e+01
    5.400000e+02    0.000000e+00   -1.253873e-05   -2.789430e-05   -2.984546e+03   -5.151264e+00   -3.252484e+01
    5.200000e+02    0.000000e+00   -1.223999e-05   -2.617436e-05   -3.105799e+03    9.677655e-01   -2.837669e+01
    5.000000e+02    0.000000e+00   -1.192938e-05   -2.449380e-05   -3.226780e+03    2.461416e+00   -2.881276e+01
    4.800000e+02    0.000000e+00   -1.160655e-05   -2.285416e-05   -3.352186e+03    1.858550e+00   -3.032076e+01
    4.600000e+02    0.000000e+00   -1.127109e-05   -2.125757e-05   -3.485729e+03   -2.962935e+01    4.971395e+01
    4.300000e+02    0.000000e+00   -1.074435e-05   -1.894771e-05   -3.663935e+03    2.475386e+00   -3.218758e+01
    4.100000e+02    0.000000e+00   -1.037729e-05   -1.746701e-05   -3.789260e+03   -1.084745e-01   -3.322811e+01
    3.900000e+02    0.000000e+00   -9.997561e-06   -1.603588e-05   -3.912858e+03   -1.227952e+00   -3.430701e+01
    3.700000e+02    0.000000e+00   -9.605034e-06   -1.465526e-05   -4.028981e+03    4.109786e+00   -4.482004e+01
    3.500000e+02    0.000000e+00   -9.199575e-06   -1.332855e-05   -4.166621e+03   -3.361814e-01   -3.763368e+01
    3.300000e+02    0.000000e+00   -8.781626e-06   -1.205636e-05   -4.316890e+03   -2.656059e-01   -3.605993e+01
    3.000000e+02    0.000000e+00   -8.130169e-06   -1.025512e-05   -4.496763e+03   -7.876666e+00   -3.803230e+01
    2.800000e+02    0.000000e+00   -7.680286e-06   -9.128157e-06   -4.631818e+03   -2.770039e-01   -3.410783e+01
    2.600000e+02    0.000000e+00   -7.217701e-06   -8.061656e-06   -4.764739e+03    2.571387e+00   -3.161072e+01
    2.400000e+02    0.000000e+00   -6.742427e-06   -7.057746e-06   -4.894736e+03    3.171276e+00   -3.051878e+01
    2.200000e+02    0.000000e+00   -6.254611e-06   -6.117937e-06   -5.019313e+03    2.125874e+00   -3.166924e+01
    2.000000e+02    0.000000e+00   -5.754154e-06   -5.243724e-06   -5.140474e+03   -3.482221e+01    8.666624e+01
    1.700000e+02    0.000000e+00   -4.980497e-06   -4.060211e-06   -5.315548e+03   -5.539511e+00   -3.395962e+01
    1.500000e+02    0.000000e+00   -4.450317e-06   -3.358137e-06   -5.469796e+03    2.321763e+00   -2.455996e+01
    1.300000e+02    0.000000e+00   -3.908652e-06   -2.726400e-06   -5.589613e+03    3.001490e+00   -2.311244e+01
    1.100000e+02    0.000000e+00   -3.355915e-06   -2.165642e-06   -5.679877e+03   -5.792588e+00   -2.512941e+01
    9.000000e+01    0.000000e+00   -2.793484e-06   -1.675414e-06   -5.777798e+03   -1.272653e+00   -2.478783e+01
    7.000000e+01    0.000000e+00   -2.221782e-06   -1.253162e-06   -5.926379e+03   -3.967125e+01    8.802179e+01
    4.000000e+01    0.000000e+00   -1.346304e-06   -7.293864e-07   -6.140686e+03   -1.151798e+01   -2.694381e+01
    2.000000e+01    0.000000e+00   -7.412054e-07   -4.170576e-07   -6.592930e+03    3.993229e+01   -8.743323e+01
    1.000000e+03    0.000000e+00   -1.862717e-05   -8.136227e-05    4.575463e+01    3.654582e+01   -1.949850e+01
    0.000000e+00    0.000000e+00   -3.317806e-10    2.407988e-11   -6.239614e+03   -1.455880e+03   -7.718173e+02
    1.000000e+03    7.666666e+01   -7.140401e-06   -8.213079e-05    2.206556e+02   -7.702906e+03   -1.064420e+03
    1.000000e+03    5.000000e+01   -1.116221e-05   -8.151558e-05    1.042745e+02   -2.391563e+03   -2.284047e+02
    1.000000e+03    2.666667e+01   -1.459456e-05   -8.136872e-05   -5.377659e+00   -4.942286e+02   -8.080925e+01
    1.000000e+03    1.000000e+02   -1.817431e-06   -8.458393e-05    8.822746e+03   -4.374268e+04   -9.845527e+03
    8.024623e+02    2.687131e+02    1.155348e-05   -5.319957e-05    6.101085e+01    2.915336e+02   -1.105784e+02
    8.097887e+02    2.381966e+02    8.757207e-06   -5.396191e-05    1.832394e+02    9.920998e+02   -4.603399e+02
    8.217987e+02    2.092019e+02    6.197563e-06   -5.532387e-05    6.398813e+02    1.784081e+03   -1.081511e+03
    8.381966e+02    1.824429e+02    3.881876e-06   -5.730974e-05    1.468071e+03    2.212278e+03   -1.778493e+03
    8.585786e+02    1.585786e+02    1.826992e-06   -5.992438e-05    2.489209e+03    2.094916e+03   -2.231747e+03
    8.824429e+02    1.381966e+02    6.545079e-08   -6.316803e-05    2.707462e+03    1.139020e+03   -1.940997e+03
    9.092019e+02    1.217987e+02   -1.358495e-06   -6.703422e-05    4.675498e+03    1.281182e+03   -2.076093e+03
    9.381966e+02    1.097887e+02   -2.381751e-06   -7.149446e-05    4.039595e+03    4.400073e+02   -1.200061e+03
    9.687131e+02    1.024623e+02   -2.862952e-06   -7.652013e-05    3.214547e+03   -3.468958e+02   -1.100844e+02
    8.000000e+02    3.000000e+02    1.453766e-05   -5.296559e-05   -3.952983e+01   -2.942386e+01   -8.419964e+00
    1.600000e+01    3.000000e+02    6.283656e-07   -3.644178e-07    6.517232e+03   -4.277419e+02    5.006787e+01
    4.800000e+01    3.000000e+02    1.587295e-06   -8.604296e-07    6.062828e+03    6.374728e+01    9.245608e+01
    6.400000e+01    3.000000e+02    2.053256e-06   -1.140558e-06    5.857066e+03   -1.670051e+01   -3.821559e+01
    9.600000e+01    3.000000e+02    2.967882e-06   -1.815245e-06    5.675142e+03   -7.603678e+00    1.455283e+02
    1.120000e+02    3.000000e+02    3.415559e-06   -2.217665e-06    5.569569e+03    2.418073e+01   -2.280888e+02
    1.280000e+02    3.000000e+02    3.856553e-06   -2.666913e-06    5.495175e+03    2.846225e+01    1.743276e+02
    1.600000e+02    3.000000e+02    4.720904e-06   -3.699552e-06    5.195430e+03   -8.164025e+00    1.014730e+02
    1.760000e+02    3.000000e+02    5.141270e-06   -4.283966e-06    5.220789e+03   -2.969755e+01   -2.328426e+02
    1.920000e+02    3.000000e+02    5.554247e-06   -4.912283e-06    5.132126e+03    3.407163e-01    1.418532e+02
    2.240000e+02    3.000000e+02    6.356918e-06   -6.298819e-06    4.945003e+03    2.902189e+01   -2.176777e+02
    2.400000e+02    3.000000e+02    6.745926e-06   -7.055628e-06    4.842136e+03   -3.339468e+01    1.222214e+02
    2.720000e+02    3.000000e+02    7.499405e-06   -8.692808e-06    4.561502e+03   -8.829251e+00   -4.996748e+01
    2.880000e+02    3.000000e+02    7.864710e-06   -9.569257e-06    4.487495e+03    2.184850e+01   -2.189711e+02
    3.040000e+02    3.000000e+02    8.222874e-06   -1.048498e-05    4.360701e+03   -1.141854e+01    1.140235e+02
    3.360000e+02    3.000000e+02    8.914257e-06   -1.243052e-05    4.194272e+03    8.288757e+00   -2.063446e+02
    3.520000e+02    3.000000e+02    9.247445e-06   -1.345786e-05    4.092624e+03   -1.839459e+01    8.689416e+01
    3.840000e+02    3.000000e+02    9.887116e-06   -1.561652e-05    3.831111e+03    8.455663e+00   -4.493334e+01
    4.000000e+02    3.000000e+02    1.019753e-05   -1.674438e-05    3.726088e+03   -1.455847e+00   -2.031277e+02
    4.160000e+02    3.000000e+02    1.049774e-05   -1.790360e-05    3.630951e+03    3.867779e+01    5.525273e+01
    4.480000e+02    3.000000e+02    1.107709e-05   -2.032842e-05    3.151399e+03   -6.983412e+01   -3.858775e+01
    4.640000e+02    3.000000e+02    1.135399e-05   -2.158393e-05    3.412300e+03    6.003755e+01    2.956012e+01
    4.960000e+02    3.000000e+02    1.188285e-05   -2.418319e-05    3.169716e+03    5.237613e+01    1.586448e+01
    5.120000e+02    3.000000e+02    1.213412e-05   -2.552676e-05    3.028937e+03    3.803056e+01   -6.400898e+00
    5.280000e+02    3.000000e+02    1.237852e-05   -2.689470e-05    3.017194e+03    7.984449e+01    3.135234e+01
    5.600000e+02    3.000000e+02    1.283823e-05   -2.971296e-05    2.526504e+03   -5.249490e+01   -1.055582e+01
    5.760000e+02    3.000000e+02    1.305389e-05   -3.115925e-05    2.643928e+03    1.645043e+01    6.249885e-01
    5.920000e+02    3.000000e+02    1.325971e-05   -3.262953e-05    2.750201e+03    8.783706e+01   -6.722098e+00
    6.240000e+02    3.000000e+02    1.363578e-05   -3.563830e-05    2.115439e+03    1.027140e+01   -6.342520e+01
    6.400000e+02    3.000000e+02    1.380885e-05   -3.717237e-05    2.063857e+03    5.562218e+01   -3.923238e+01
    6.720000e+02    3.000000e+02    1.410703e-05   -4.029999e-05    1.564041e+03    1.248456e+01   -1.012656e+02
    6.880000e+02    3.000000e+02    1.422902e-05   -4.188536e-05    1.381546e+03    2.669451e+01   -1.119484e+02
    7.040000e+02    3.000000e+02    1.433701e-05   -4.348035e-05    1.341806e+03    9.915071e+01   -6.567399e+01
    7.360000e+02    3.000000e+02    1.448265e-05   -4.668668e-05    6.366981e+02   -3.301505e+01   -7.373136e+01
    7.520000e+02    3.000000e+02    1.452097e-05   -4.828301e-05    4.398188e+02    1.028012e+02   -1.560315e+02
    7.840000e+02    3.000000e+02    1.453926e-05   -5.142479e-05    5.176317e+01    4.400500e+01   -4.769485e+01
    0.000000e+00    3.000000e+02   -2.267568e-10   -2.519688e-10    9.239127e+03    3.472319e+03   -2.274032e+03
    0.000000e+00    2.400000e+01   -2.900805e-12    1.334814e-10   -5.712392e+03   -1.797871e+03   -6.239141e+02
    0.000000e+00    4.200000e+01   -4.646521e-10   -1.840836e-10   -4.678965e+03   -1.292528e+03   -4.912963e+02
    0.000000e+00    6.600000e+01   -8.151688e-11    1.069548e-09   -3.601501e+03   -1.046987e+03   -2.804226e+02
    0.000000e+00    8.400000e+01    8.374297e-10    5.878152e-10   -2.872656e+03   -8.276569e+02   -1.438733e+02
    0.000000e+00    1.080000e+02    1.499769e-09    6.086982e-10   -1.879440e+03   -5.541566e+02   -7.024905e+01
    0.000000e+00    1.260000e+02    3.152243e-10    9.766792e-11   -1.096693e+03   -2.952187e+02    3.092596e+01
    0.000000e+00    1.500000e+02    1.165755e-09    2.648591e-10   -2.422245e+02   -6.858907e+01    1.925657e+01
    0.000000e+00    1.740000e+02   -3.633584e-10   -6.047725e-10    7.408296e+02    2.134727e+02   -1.634934e+01
    0.000000e+00    1.920000e+02   -1.211149e-09    2.194547e-10    1.432759e+03    3.938578e+02   -1.815928e+01
    0.000000e+00    2.160000e+02   -7.664717e-10   -1.451162e-09    2.393866e+03    7.116633e+02   -7.617482e+01
    0.000000e+00    2.340000e+02    4.443423e-12   -4.196388e-11    3.100270e+03    8.908742e+02   -1.780597e+02
    0.000000e+00    2.580000e+02    3.679032e-10    1.369397e-10    4.143630e+03    1.158097e+03   -3.548100e+02
    0.000000e+00    2.760000e+02    4.013014e-10    3.189429e-10    5.040400e+03    1.318481e+03   -5.799647e+02
    7.975596e+02    2.166320e+02    6.825944e-06   -5.285975e-05    7.344486e+02    8.220863e+02   -8.577999e+02
    9.704074e+02    2.033677e+01   -1.551305e-05   -7.677581e-05   -5.833654e+02   -2.190962e+02   -7.950952e+02
    9.541854e+02    2.376951e+01   -1.493350e-05   -7.419081e-05   -1.171573e+03    5.315185e+01   -9.571446e+02
    9.287260e+02    2.457531e+01   -1.463188e-05   -7.020269e-05   -1.643538e+03    2.412213e+02   -7.738097e+02
    9.102922e+02    1.710042e+01   -1.551685e-05   -6.746626e-05   -2.661549e+03    2.042151e+01   -2.972768e+02
    8.912429e+02    1.786983e+01   -1.517717e-05   -6.473837e-05   -2.658042e+03    8.939296e+01   -2.234888e+02
    8.628192e+02    2.793829e+01   -1.350408e-05   -6.088024e-05   -2.260040e+03    1.295585e+02   -1.157318e+02
    8.419496e+02    1.980638e+01   -1.428401e-05   -5.828218e-05   -2.712658e+03    5.316532e+01    2.365531e+00
    8.216908e+02    2.139715e+01   -1.383519e-05   -5.584303e-05   -2.711493e+03   -3.828353e+00    7.961640e+01
    7.987866e+02    2.622549e+01   -1.300538e-05   -5.319400e-05   -2.561718e+03   -8.151551e+01    1.729443e+02
    7.776621e+02    2.036057e+01   -1.342809e-05   -5.088078e-05   -2.353760e+03    1.654153e+01    1.623524e+02
    7.586340e+02    1.867615e+01   -1.339287e-05   -4.884378e-05   -2.374490e+03    4.850180e+00    1.586034e+02
    7.099205e+02    2.004580e+01   -1.271667e-05   -4.380750e-05   -2.313897e+03   -4.366861e+01    7.613720e+01
    6.900895e+02    2.007078e+01   -1.250504e-05   -4.182388e-05   -2.202161e+03   -1.693987e+01    2.045939e+00
    6.604282e+02    2.857361e+01   -1.137130e-05   -3.889038e-05   -2.092071e+03   -3.139596e+01   -3.183490e+01
    6.412823e+02    1.903719e+01   -1.208545e-05   -3.707733e-05   -2.289335e+03   -1.109921e+01   -4.341769e+01
    6.121320e+02    1.979005e+01   -1.169279e-05   -3.432393e-05   -2.367672e+03   -8.646738e-01   -1.027335e+02
    5.925099e+02    2.065404e+01   -1.139043e-05   -3.250659e-05   -2.499340e+03   -8.532815e+00   -1.379671e+02
    5.740172e+02    2.227103e+01   -1.103016e-05   -3.081962e-05   -2.471397e+03    4.335538e+00   -1.273447e+02
    5.546623e+02    2.204717e+01   -1.081825e-05   -2.909243e-05   -2.587609e+03   -6.111915e+00   -1.586375e+02
    5.273737e+02    2.735254e+01   -1.002958e-05   -2.669194e-05   -2.520472e+03    1.583994e+01   -1.431160e+02
    5.091844e+02    1.849906e+01   -1.053176e-05   -2.517954e-05   -2.928507e+03   -1.787510e+01   -1.080661e+02
    4.900484e+02    1.863917e+01   -1.025385e-05   -2.358802e-05   -2.958284e+03    5.412829e+00   -1.189522e+02
    4.615965e+02    2.893413e+01   -9.043741e-06   -2.124972e-05   -2.926260e+03   -3.405786e+00   -2.024355e+02
    4.416101e+02    1.972050e+01   -9.454198e-06   -1.973166e-05   -3.208684e+03   -1.101946e+01   -8.887472e+01
    4.123953e+02    1.968078e+01   -8.996745e-06   -1.753914e-05   -3.393633e+03    1.632309e+01   -1.641184e+02
    3.927174e+02    2.040142e+01   -8.623236e-06   -1.611772e-05   -3.596940e+03    4.327038e+00   -1.948092e+02
    3.742674e+02    2.210724e+01   -8.197895e-06   -1.482437e-05   -3.552518e+03    1.675870e+01   -1.652060e+02
    3.554284e+02    2.170623e+01   -7.900566e-06   -1.356140e-05   -3.708832e+03    9.492607e-01   -1.949191e+02
    3.307138e+02    2.881326e+01   -7.029848e-06   -1.193566e-05   -3.582115e+03   -1.399170e+01   -1.270716e+02
    3.095146e+02    2.369963e+01   -6.954667e-06   -1.066821e-05   -3.845543e+03   -1.907740e+01   -1.101289e+02
    2.887732e+02    2.055570e+01   -6.739196e-06   -9.485950e-06   -4.209478e+03   -3.475623e+01   -1.392702e+02
    2.399967e+02    1.921472e+01   -5.821158e-06   -6.927663e-06   -4.410368e+03    2.798783e+00   -1.155182e+02
    2.209333e+02    1.962705e+01   -5.397555e-06   -6.024616e-06   -4.446379e+03    3.852505e+01   -1.762668e+02
    2.016656e+02    2.083340e+01   -4.929665e-06   -5.167095e-06   -4.854043e+03   -7.978451e+01   -9.289307e+01
    1.798680e+02    2.458759e+01   -4.309163e-06   -4.255203e-06   -4.444302e+03    4.936215e+01   -2.200534e+02
    1.319335e+02    2.587263e+01   -3.201833e-06   -2.590214e-06   -4.771448e+03    2.262730e+01   -1.993373e+02
    1.011096e+02    2.154394e+01   -2.588401e-06   -1.768531e-06   -5.147517e+03   -3.768015e+01   -9.572734e+01
    8.006501e+01    1.740656e+01   -2.152594e-06   -1.315807e-06   -5.274815e+03    2.504089e+01   -1.347541e+02
    6.177956e+01    2.348381e+01   -1.576761e-06   -9.074350e-07   -5.192978e+03    2.201746e+00   -2.367398e+02
    3.917621e+01    2.268201e+01   -1.004673e-06   -5.278063e-07   -5.522890e+03   -1.079154e+02   -2.313438e+02
    2.647962e+01    2.592167e+01   -6.397776e-07   -3.115426e-07   -5.628553e+03   -3.965145e+02   -5.005238e+02
    9.804387e+02    4.559271e+01   -1.183877e-05   -7.842628e-05   -3.661362e+02   -9.220630e+02   -1.364702e+03
    9.533884e+02    4.470533e+01   -1.188783e-05   -7.401980e-05   -9.209886e+02    2.375483e+02   -1.296401e+03
    9.368302e+02    4.215775e+01   -1.216859e-05   -7.139490e-05   -9.483046e+02    4.419643e+02   -1.075659e+03
    9.099270e+02    4.288057e+01   -1.190533e-05   -6.731472e-05   -1.332047e+03    4.306348e+02   -6.090252e+02
    8.829393e+02    4.348536e+01   -1.164724e-05   -6.349608e-05   -1.530407e+03    2.726364e+02   -4.227125e+02
    8.645707e+02    4.494313e+01   -1.133227e-05   -6.104890e-05   -1.319301e+03    2.920560e+02   -1.339355e+02
    8.439742e+02    3.869498e+01   -1.196241e-05   -5.846463e-05   -1.656880e+03    1.603166e+02    1.210394e+02
    8.251229e+02    4.032401e+01   -1.160604e-05   -5.618621e-05   -1.661076e+03    9.155149e+01    1.297912e+02
    7.969833e+02    4.373963e+01   -1.098217e-05   -5.294439e-05   -1.698366e+03   -5.037343e+01    2.143906e+02
    7.787406e+02    4.126227e+01   -1.111749e-05   -5.093864e-05   -1.822099e+03   -7.250767e+01    1.668479e+02
    7.484954e+02    3.731643e+01   -1.129468e-05   -4.772206e-05   -1.764853e+03   -2.800300e+01    1.495836e+02
    7.307632e+02    4.852547e+01   -9.975105e-06   -4.585942e-05   -1.561593e+03   -9.463021e+01    1.444643e+02
    7.103113e+02    4.118029e+01   -1.057343e-05   -4.379104e-05   -1.749843e+03   -6.617118e+01    1.177609e+01
    6.883121e+02    4.430687e+01   -1.008237e-05   -4.158383e-05   -1.718679e+03   -7.786186e+01   -8.304517e+00
    6.665117e+02    4.774065e+01   -9.574146e-06   -3.943469e-05   -1.675253e+03   -6.875859e+01   -7.292356e+01
    6.410406e+02    3.790157e+01   -1.029709e-05   -3.699935e-05   -1.893072e+03   -2.259920e+01   -1.201610e+02
    6.216317e+02    4.602813e+01   -9.365413e-06   -3.513835e-05   -1.792106e+03   -3.152677e+01   -1.665343e+02
    6.047263e+02    4.652102e+01   -9.172139e-06   -3.355669e-05   -1.975082e+03   -6.565511e+01   -1.540924e+02
    5.752205e+02    4.114952e+01   -9.373625e-06   -3.086786e-05   -2.229626e+03   -6.260252e+01   -1.862548e+02
    5.527671e+02    4.250237e+01   -9.028689e-06   -2.885574e-05   -2.182508e+03   -2.340173e+01   -2.088875e+02
    5.309374e+02    4.505654e+01   -8.585511e-06   -2.693938e-05   -2.251150e+03   -2.434678e+01   -2.409420e+02
    5.096205e+02    4.607911e+01   -8.275034e-06   -2.511541e-05   -2.377269e+03   -4.024188e+01   -2.330813e+02
    4.900715e+02    3.770342e+01   -8.725134e-06   -2.351490e-05   -2.714163e+03   -5.225075e+01   -2.049871e+02
    4.640415e+02    4.780499e+01   -7.628344e-06   -2.137250e-05   -2.358348e+03    1.545404e+01   -2.565082e+02
    4.425627e+02    4.412732e+01   -7.646337e-06   -1.970208e-05   -2.635075e+03    9.126751e+00   -2.590150e+02
    4.207434e+02    4.699867e+01   -7.164295e-06   -1.803863e-05   -2.718786e+03   -3.684790e+01   -2.838606e+02
    4.049632e+02    4.571205e+01   -7.052009e-06   -1.688330e-05   -2.682816e+03    2.260543e+01   -2.488108e+02
    3.760952e+02    4.051975e+01   -7.005393e-06   -1.486348e-05   -3.213173e+03   -5.758403e+01   -2.310982e+02
    3.548659e+02    4.194985e+01   -6.603404e-06   -1.342544e-05   -3.120734e+03   -7.798458e+00   -2.364601e+02
    3.373424e+02    4.452301e+01   -6.186247e-06   -1.227904e-05   -3.169219e+03   -3.388254e+01   -2.441397e+02
    3.010880e+02    4.579350e+01   -5.566498e-06   -1.006064e-05   -3.150012e+03    4.024173e+01   -2.937498e+02
    2.645848e+02    4.688006e+01   -4.935924e-06   -8.024053e-06   -3.414215e+03   -4.837674e+00   -2.533398e+02
    2.491332e+02    3.692021e+01   -5.158104e-06   -7.277178e-06   -3.765014e+03    5.730504e+00   -2.108799e+02
    2.231548e+02    3.846364e+01   -4.616586e-06   -6.014387e-06   -3.783367e+03   -1.833672e+00   -1.750940e+02
    2.009328e+02    5.118815e+01   -3.701831e-06   -4.960800e-06   -3.507437e+03    3.753818e+01   -3.195183e+02
    1.698135e+02    4.778255e+01   -3.286820e-06   -3.735956e-06   -3.685439e+03    6.011755e+01   -3.026074e+02
    1.567147e+02    4.373902e+01   -3.177555e-06   -3.286491e-06   -3.980962e+03   -6.137185e+01   -2.119364e+02
    1.332083e+02    4.353199e+01   -2.731273e-06   -2.517145e-06   -4.193340e+03   -2.385230e+01   -2.716136e+02
    1.106247e+02    4.687751e+01   -2.205500e-06   -1.849049e-06   -3.940882e+03   -5.861243e-01   -2.368348e+02
    8.656116e+01    4.736848e+01   -1.718612e-06   -1.254978e-06   -4.192806e+03   -3.703560e+01   -2.876967e+02
    7.339634e+01    4.020132e+01   -1.572579e-06   -1.017856e-06   -4.586904e+03   -4.848409e+01   -2.306016e+02
    4.419603e+01    4.797808e+01   -8.524934e-07   -4.549388e-07   -4.375369e+03   -2.854913e+02   -4.048201e+02
    2.344804e+01    4.785981e+01   -4.380238e-07   -1.811931e-07   -4.152439e+03   -6.284941e+02   -4.451498e+02
    9.570887e+02    6.325896e+01   -9.193959e-06   -7.457173e-05   -5.069187e+02    5.127422e+02   -1.321981e+03
    9.315117e+02    5.771200e+01   -9.925960e-06   -7.050909e-05   -3.970235e+02    6.763129e+02   -9.916621e+02
    9.101439e+02    6.786401e+01   -8.468676e-06   -6.725369e-05    2.969519e+02    8.060559e+02   -7.635154e+02
    8.909039e+02    5.969151e+01   -9.536155e-06   -6.453728e-05   -3.948948e+02    5.796850e+02   -5.163015e+02
    8.667939e+02    6.091529e+01   -9.303177e-06   -6.129075e-05   -6.654400e+02    3.727431e+02   -1.611889e+02
    8.461073e+02    6.470024e+01   -8.767092e-06   -5.866010e-05   -5.515610e+02    2.179595e+02   -1.382011e+02
    8.212281e+02    6.922781e+01   -8.154581e-06   -5.566655e-05   -3.996624e+02    2.156028e+02   -2.140657e+01
    8.009572e+02    6.485447e+01   -8.592980e-06   -5.335207e-05   -9.029622e+02   -2.101039e+01    1.411485e+02
    7.746648e+02    6.412457e+01   -8.564576e-06   -5.045824e-05   -1.070344e+03   -1.029676e+02    9.250198e+01
    7.578168e+02    6.564925e+01   -8.324372e-06   -4.865633e-05   -6.868517e+02   -1.063032e+01    1.116125e+02
    7.323614e+02    6.705066e+01   -8.060106e-06   -4.599977e-05   -9.698240e+02   -1.168167e+02    5.472001e+01
    7.134789e+02    6.472665e+01   -8.203996e-06   -4.407289e-05   -1.253088e+03   -1.539504e+02   -2.530168e+01
    6.922411e+02    6.708578e+01   -7.854274e-06   -4.193893e-05   -1.166479e+03   -1.284117e+02   -6.709537e+01
    6.668338e+02    6.501867e+01   -7.910224e-06   -3.943661e-05   -1.328951e+03   -1.127240e+02   -1.157970e+02
    6.455613e+02    7.031728e+01   -7.279484e-06   -3.736802e-05   -1.276203e+03   -1.094317e+02   -1.971488e+02
    6.218417e+02    7.109582e+01   -7.063880e-06   -3.510859e-05   -1.314170e+03   -7.075057e+01   -2.197756e+02
    6.019660e+02    6.504725e+01   -7.478825e-06   -3.325966e-05   -1.555759e+03   -4.914823e+01   -2.518295e+02
    5.793043e+02    6.440470e+01   -7.368255e-06   -3.117928e-05   -1.574494e+03   -4.580007e+01   -2.563443e+02
    5.525460e+02    6.412827e+01   -7.179761e-06   -2.877873e-05   -1.732669e+03   -4.011227e+01   -2.754506e+02
    5.313436e+02    6.642516e+01   -6.813537e-06   -2.691588e-05   -1.807253e+03   -4.931482e+01   -3.416731e+02
    5.108710e+02    6.524353e+01   -6.735332e-06   -2.516565e-05   -1.819899e+03   -9.869598e+00   -3.088367e+02
    4.905476e+02    5.660986e+01   -7.232346e-06   -2.349164e-05   -2.038177e+03    1.541693e+01   -3.033489e+02
    4.724528e+02    6.529720e+01   -6.381246e-06   -2.199095e-05   -2.001046e+03   -1.183600e+01   -3.094441e+02
    4.437014e+02    6.207267e+01   -6.339071e-06   -1.972924e-05   -2.158755e+03   -1.650833e+01   -3.192481e+02
    4.215970e+02    6.529974e+01   -5.877087e-06   -1.803950e-05   -2.105432e+03    4.502436e+01   -3.508688e+02
    4.016481e+02    6.402426e+01   -5.753427e-06   -1.657735e-05   -2.391168e+03   -2.129719e+01   -3.321492e+02
    3.827009e+02    6.181829e+01   -5.690021e-06   -1.523813e-05   -2.344902e+03    2.444606e+01   -3.291887e+02
    3.548059e+02    6.372750e+01   -5.242539e-06   -1.333515e-05   -2.488498e+03   -2.910617e+01   -3.372579e+02
    3.357186e+02    6.310193e+01   -5.051219e-06   -1.210041e-05   -2.526187e+03    3.923089e+01   -3.425742e+02
    3.097419e+02    6.146809e+01   -4.819526e-06   -1.050474e-05   -2.699746e+03   -1.548918e+01   -3.129247e+02
    2.863040e+02    6.844967e+01   -4.147440e-06   -9.117549e-06   -2.618696e+03   -9.300974e+00   -3.243594e+02
    2.695321e+02    6.178827e+01   -4.268854e-06   -8.222368e-06   -2.784311e+03    6.853962e+01   -2.933933e+02
    2.468220e+02    6.090168e+01   -3.995234e-06   -7.045058e-06   -3.079485e+03   -7.924976e+00   -2.952180e+02
    2.186586e+02    5.780652e+01   -3.717331e-06   -5.710379e-06   -3.191443e+03   -2.407625e+01   -2.615365e+02
    2.055846e+02    6.537579e+01   -3.218209e-06   -5.095498e-06   -2.978532e+03   -2.656812e+01   -2.976803e+02
    1.811186e+02    6.835391e+01   -2.759709e-06   -4.067637e-06   -3.011674e+03    2.309341e+01   -3.734242e+02
    1.524619e+02    6.620871e+01   -2.410361e-06   -3.025215e-06   -3.181199e+03    2.639452e+01   -3.403093e+02
    1.356765e+02    6.291122e+01   -2.243344e-06   -2.489736e-06   -3.382458e+03    5.466968e+00   -3.303928e+02
    1.104300e+02    6.960597e+01   -1.682595e-06   -1.725719e-06   -3.198540e+03   -1.807735e+01   -3.984497e+02
    8.896207e+01    6.907473e+01   -1.360720e-06   -1.197817e-06   -3.323911e+03   -7.393949e+01   -3.754415e+02
    6.983754e+01    6.512886e+01   -1.115522e-06   -8.142226e-07   -3.564759e+03   -8.987577e+01   -3.258540e+02
    4.722813e+01    6.324580e+01   -7.583391e-07   -4.351632e-07   -3.744447e+03   -3.082611e+02   -4.133356e+02
    2.223101e+01    6.607716e+01   -3.318251e-07   -1.260221e-07   -3.469639e+03   -6.284224e+02   -3.702186e+02
    9.741592e+02    8.695018e+01   -5.462153e-06   -7.743219e-05    1.606747e+02    1.807393e+02   -6.737457e+02
    9.575135e+02    8.530688e+01   -5.812109e-06   -7.458356e-05    1.167929e+03    5.781215e+02   -6.917515e+02
    9.350037e+02    8.537543e+01   -5.945607e-06   -7.096413e-05    1.506304e+03    7.154879e+02   -8.447565e+02
    9.066251e+02    8.251076e+01   -6.486942e-06   -6.669616e-05    8.892208e+02    7.976773e+02   -8.065341e+02
    8.874228e+02    8.264481e+01   -6.529745e-06   -6.398686e-05    7.915044e+02    7.954426e+02   -6.866477e+02
    8.680915e+02    8.451247e+01   -6.338172e-06   -6.139803e-05    4.872021e+02    6.915025e+02   -5.002039e+02
    8.428903e+02    8.377683e+01   -6.459061e-06   -5.822660e-05    2.043594e+02    3.671792e+02   -2.126829e+02
    8.233391e+02    8.397452e+01   -6.440724e-06   -5.589451e-05    1.782319e+02    2.177328e+02   -1.035997e+02
    7.996136e+02    8.529967e+01   -6.281059e-06   -5.318220e-05    6.526389e+01    1.988726e+02   -1.068166e+02
    7.774117e+02    8.333517e+01   -6.473734e-06   -5.074261e-05   -4.507894e+02   -8.259133e+01   -2.460292e+01
    7.493674e+02    8.468133e+01   -6.280105e-06   -4.775876e-05   -3.360487e+02   -1.055823e+02   -6.164552e-01
    7.334640e+02    8.600095e+01   -6.109084e-06   -4.610613e-05   -5.318836e+02   -1.834287e+02    1.416239e+00
    7.115616e+02    8.643045e+01   -6.008539e-06   -4.386833e-05   -6.433250e+02   -1.835900e+02   -9.148888e+01
    6.936164e+02    8.951651e+01   -5.651452e-06   -4.206369e-05   -7.659276e+02   -2.223437e+02   -1.146357e+02
    6.726514e+02    8.397331e+01   -6.117056e-06   -3.998851e-05   -8.130139e+02   -1.464170e+02   -1.534855e+02
    6.415936e+02    8.560122e+01   -5.832162e-06   -3.697182e-05   -1.004138e+03   -1.447094e+02   -2.443842e+02
    6.208995e+02    8.664877e+01   -5.641139e-06   -3.500126e-05   -9.834212e+02   -8.147103e+01   -2.898066e+02
    6.024370e+02    8.717817e+01   -5.502883e-06   -3.326926e-05   -1.126788e+03   -8.821186e+01   -3.129351e+02
    5.845270e+02    8.903836e+01   -5.248543e-06   -3.161450e-05   -1.114814e+03   -5.293903e+01   -3.516006e+02
    5.521581e+02    8.459892e+01   -5.446730e-06   -2.870399e-05   -1.227447e+03   -2.974547e+01   -3.662311e+02
    5.301384e+02    8.424077e+01   -5.337528e-06   -2.677440e-05   -1.352233e+03   -3.149461e+01   -3.579584e+02
    5.101674e+02    8.600639e+01   -5.063829e-06   -2.506010e-05   -1.484251e+03   -4.786060e+01   -4.182044e+02
    4.898557e+02    8.614552e+01   -4.915977e-06   -2.336117e-05   -1.497947e+03   -2.760149e+01   -4.301873e+02
    4.713826e+02    8.121410e+01   -5.160695e-06   -2.186512e-05   -1.505310e+03   -1.378727e+01   -3.690620e+02
    4.461625e+02    8.763094e+01   -4.495041e-06   -1.985288e-05   -1.424913e+03    1.844188e+01   -4.194077e+02