TITLE="test case governed by poisson equation"
VARIABLES="X""Y""Z""U""V""W"
ZONE N=   11222,E=    5400,ET=BRICK,F=FEPOINT
   -4.000000e+01    1.400000e+02    1.800000e+03   -7.871509e-03   -7.047716e+00    4.044792e-01
    4.000000e+01    1.400000e+02    1.800000e+03    7.871502e-03   -7.047716e+00    4.044792e-01
    4.000000e+01    1.400000e+02    0.000000e+00    1.070238e-12    1.677063e-11   -6.194679e-11
   -4.000000e+01    1.400000e+02    0.000000e+00    1.087460e-11   -1.266407e-11   -9.021729e-12
   -2.750000e+00    1.309000e+02    1.800000e+03    4.476848e-04   -7.000137e+00    3.478929e-01
   -2.750000e+00    1.309000e+02    0.000000e+00   -9.759701e-12   -6.209407e-11    1.406014e-10
   -4.000000e+01    1.309000e+02    0.000000e+00   -6.233290e-12    1.702883e-11   -9.874994e-12
   -4.000000e+01    1.309000e+02    1.800000e+03    6.970861e-03   -7.047702e+00    3.410579e-01
    4.000000e+01    1.309000e+02    1.800000e+03   -6.970865e-03   -7.047702e+00    3.410579e-01
    2.750000e+00    1.309000e+02    1.800000e+03   -4.476892e-04   -7.000137e+00    3.478929e-01
    2.750000e+00    1.309000e+02    0.000000e+00   -1.517739e-10   -3.897710e-11    1.394181e-10
    4.000000e+01    1.309000e+02    0.000000e+00   -3.087249e-11    6.959609e-12    1.263242e-10
    4.000000e+01    9.100000e+00    1.800000e+03    6.970883e-03   -7.047702e+00   -3.410580e-01
    4.000000e+01    9.100000e+00    0.000000e+00    7.191547e-11    7.756849e-11   -2.766870e-11
    2.750000e+00    9.100000e+00    0.000000e+00    4.366069e-11   -7.925097e-11    4.992167e-11
    2.750000e+00    9.100000e+00    1.800000e+03    4.477004e-04   -7.000137e+00   -3.478931e-01
   -2.750000e+00    9.100000e+00    0.000000e+00   -6.148294e-11    1.899536e-10    1.565802e-10
   -2.750000e+00    9.100000e+00    1.800000e+03   -4.476742e-04   -7.000137e+00   -3.478931e-01
   -4.000000e+01    9.100000e+00    1.800000e+03   -6.970857e-03   -7.047702e+00   -3.410580e-01
   -4.000000e+01    9.100000e+00    0.000000e+00    4.511209e-11    2.407546e-11    5.857533e-11
    4.000000e+01    0.000000e+00    0.000000e+00    3.706696e-12    2.036593e-12    7.815932e-11
   -4.000000e+01    0.000000e+00    0.000000e+00   -5.909759e-11    4.893134e-11   -1.271826e-10
   -4.000000e+01    0.000000e+00    1.800000e+03    7.871527e-03   -7.047716e+00   -4.044793e-01
    4.000000e+01    0.000000e+00    1.800000e+03   -7.871499e-03   -7.047716e+00   -4.044793e-01
   -3.111111e+01    1.400000e+02    1.800000e+03   -7.320758e-03   -7.031042e+00    4.028070e-01
   -2.222222e+01    1.400000e+02    1.800000e+03   -5.958339e-03   -7.017303e+00    4.008620e-01
   -1.333333e+01    1.400000e+02    1.800000e+03   -4.151544e-03   -7.006762e+00    3.996664e-01
   -4.444445e+00    1.400000e+02    1.800000e+03   -1.446966e-03   -7.001027e+00    3.992452e-01
    4.444445e+00    1.400000e+02    1.800000e+03    1.446959e-03   -7.001027e+00    3.992452e-01
    1.333333e+01    1.400000e+02    1.800000e+03    4.151537e-03   -7.006762e+00    3.996664e-01
    2.222222e+01    1.400000e+02    1.800000e+03    5.958333e-03   -7.017303e+00    4.008620e-01
    3.111111e+01    1.400000e+02    1.800000e+03    7.320751e-03   -7.031042e+00    4.028070e-01
    4.000000e+01    1.400000e+02    1.790000e+03    5.636370e-03   -6.975624e+00    4.040023e-01
    4.000000e+01    1.400000e+02    1.780000e+03    3.416582e-03   -6.906658e+00    4.030009e-01
    4.000000e+01    1.400000e+02    1.770000e+03    2.021195e-03   -6.840116e+00    4.020957e-01
    4.000000e+01    1.400000e+02    1.760000e+03    1.039620e-03   -6.775891e+00    4.012087e-01
    4.000000e+01    1.400000e+02    1.750000e+03    3.919030e-04   -6.713652e+00    4.004254e-01
    4.000000e+01    1.400000e+02    1.740000e+03   -1.523283e-05   -6.652996e+00    3.997704e-01
    4.000000e+01    1.400000e+02    1.730000e+03   -2.535703e-04   -6.593510e+00    3.992377e-01
    4.000000e+01    1.400000e+02    1.720000e+03   -3.813481e-04   -6.534837e+00    3.988044e-01
    4.000000e+01    1.400000e+02    1.710000e+03   -4.422736e-04   -6.476692e+00    3.984419e-01
    4.000000e+01    1.400000e+02    1.700000e+03   -4.670771e-04   -6.418868e+00    3.981226e-01
    4.000000e+01    1.400000e+02    1.690000e+03   -4.757893e-04   -6.361226e+00    3.978234e-01
    4.000000e+01    1.400000e+02    1.680000e+03   -4.803790e-04   -6.303678e+00    3.975268e-01
    4.000000e+01    1.400000e+02    1.670000e+03   -4.871875e-04   -6.246178e+00    3.972204e-01
    4.000000e+01    1.400000e+02    1.660000e+03   -4.989243e-04   -6.188704e+00    3.968962e-01
    4.000000e+01    1.400000e+02    1.650000e+03   -5.161594e-04   -6.131249e+00    3.965491e-01
    4.000000e+01    1.400000e+02    1.640000e+03   -5.383533e-04   -6.073817e+00    3.961767e-01
    4.000000e+01    1.400000e+02    1.630000e+03   -5.645150e-04   -6.016417e+00    3.957777e-01
    4.000000e+01    1.400000e+02    1.620000e+03   -5.935835e-04   -5.959057e+00    3.953518e-01
    4.000000e+01    1.400000e+02    1.610000e+03   -6.246207e-04   -5.901747e+00    3.948993e-01
    4.000000e+01    1.400000e+02    1.600000e+03   -6.568862e-04   -5.844495e+00    3.944205e-01
    4.000000e+01    1.400000e+02    1.590000e+03   -6.898434e-04   -5.787307e+00    3.939158e-01
    4.000000e+01    1.400000e+02    1.580000e+03   -7.231327e-04   -5.730191e+00    3.933856e-01
    4.000000e+01    1.400000e+02    1.570000e+03   -7.565325e-04   -5.673151e+00    3.928302e-01
    4.000000e+01    1.400000e+02    1.560000e+03   -7.899201e-04   -5.616193e+00    3.922498e-01
    4.000000e+01    1.400000e+02    1.550000e+03   -8.232384e-04   -5.559319e+00    3.916446e-01
    4.000000e+01    1.400000e+02    1.540000e+03   -8.564700e-04   -5.502533e+00    3.910146e-01
    4.000000e+01    1.400000e+02    1.530000e+03   -8.896195e-04   -5.445840e+00    3.903598e-01
    4.000000e+01    1.400000e+02    1.520000e+03   -9.227011e-04   -5.389243e+00    3.896804e-01
    4.000000e+01    1.400000e+02    1.510000e+03   -9.557316e-04   -5.332745e+00    3.889764e-01
    4.000000e+01    1.400000e+02    1.500000e+03   -9.887266e-04   -5.276349e+00    3.882476e-01
    4.000000e+01    1.400000e+02    1.490000e+03   -1.021699e-03   -5.220059e+00    3.874942e-01
    4.000000e+01    1.400000e+02    1.480000e+03   -1.054658e-03   -5.163879e+00    3.867161e-01
    4.000000e+01    1.400000e+02    1.470000e+03   -1.087610e-03   -5.107812e+00    3.859134e-01
    4.000000e+01    1.400000e+02    1.460000e+03   -1.120560e-03   -5.051861e+00    3.850859e-01
    4.000000e+01    1.400000e+02    1.450000e+03   -1.153510e-03   -4.996030e+00    3.842337e-01
    4.000000e+01    1.400000e+02    1.440000e+03   -1.186460e-03   -4.940323e+00    3.833569e-01
    4.000000e+01    1.400000e+02    1.430000e+03   -1.219412e-03   -4.884743e+00    3.824553e-01
    4.000000e+01    1.400000e+02    1.420000e+03   -1.252365e-03   -4.829293e+00    3.815290e-01
    4.000000e+01    1.400000e+02    1.410000e+03   -1.285319e-03   -4.773978e+00    3.805781e-01
    4.000000e+01    1.400000e+02    1.400000e+03   -1.318275e-03   -4.718800e+00    3.796024e-01
    4.000000e+01    1.400000e+02    1.390000e+03   -1.351231e-03   -4.663763e+00    3.786021e-01
    4.000000e+01    1.400000e+02    1.380000e+03   -1.384187e-03   -4.608871e+00    3.775770e-01
    4.000000e+01    1.400000e+02    1.370000e+03   -1.417144e-03   -4.554127e+00    3.765272e-01
    4.000000e+01    1.400000e+02    1.360000e+03   -1.450101e-03   -4.499535e+00    3.754528e-01
    4.000000e+01    1.400000e+02    1.350000e+03   -1.483057e-03   -4.445098e+00    3.743536e-01
    4.000000e+01    1.400000e+02    1.340000e+03   -1.516014e-03   -4.390820e+00    3.732298e-01
    4.000000e+01    1.400000e+02    1.330000e+03   -1.548971e-03   -4.336704e+00    3.720812e-01
    4.000000e+01    1.400000e+02    1.320000e+03   -1.581928e-03   -4.282754e+00    3.709079e-01
    4.000000e+01    1.400000e+02    1.310000e+03   -1.614885e-03   -4.228973e+00    3.697100e-01
    4.000000e+01    1.400000e+02    1.300000e+03   -1.647842e-03   -4.175365e+00    3.684873e-01
    4.000000e+01    1.400000e+02    1.290000e+03   -1.680798e-03   -4.121934e+00    3.672399e-01
    4.000000e+01    1.400000e+02    1.280000e+03   -1.713755e-03   -4.068683e+00    3.659679e-01
    4.000000e+01    1.400000e+02    1.270000e+03   -1.746712e-03   -4.015615e+00    3.646711e-01
    4.000000e+01    1.400000e+02    1.260000e+03   -1.779669e-03   -3.962734e+00    3.633496e-01
    4.000000e+01    1.400000e+02    1.250000e+03   -1.812625e-03   -3.910044e+00    3.620035e-01
    4.000000e+01    1.400000e+02    1.240000e+03   -1.845582e-03   -3.857547e+00    3.606326e-01
    4.000000e+01    1.400000e+02    1.230000e+03   -1.878539e-03   -3.805249e+00    3.592370e-01
    4.000000e+01    1.400000e+02    1.220000e+03   -1.911496e-03   -3.753151e+00    3.578168e-01
    4.000000e+01    1.400000e+02    1.210000e+03   -1.944452e-03   -3.701258e+00    3.563718e-01
    4.000000e+01    1.400000e+02    1.200000e+03   -1.977409e-03   -3.649574e+00    3.549021e-01
    4.000000e+01    1.400000e+02    1.190000e+03   -2.010366e-03   -3.598101e+00    3.534078e-01
    4.000000e+01    1.400000e+02    1.180000e+03   -2.043323e-03   -3.546843e+00    3.518887e-01
    4.000000e+01    1.400000e+02    1.170000e+03   -2.076279e-03   -3.495804e+00    3.503449e-01
    4.000000e+01    1.400000e+02    1.160000e+03   -2.109236e-03   -3.444988e+00    3.487765e-01
    4.000000e+01    1.400000e+02    1.150000e+03   -2.142193e-03   -3.394397e+00    3.471833e-01
    4.000000e+01    1.400000e+02    1.140000e+03   -2.175150e-03   -3.344036e+00    3.455654e-01
    4.000000e+01    1.400000e+02    1.130000e+03   -2.208106e-03   -3.293907e+00    3.439229e-01
    4.000000e+01    1.400000e+02    1.120000e+03   -2.241063e-03   -3.244015e+00    3.422556e-01
    4.000000e+01    1.400000e+02    1.110000e+03   -2.274020e-03   -3.194363e+00    3.405636e-01
    4.000000e+01    1.400000e+02    1.100000e+03   -2.306977e-03   -3.144954e+00    3.388470e-01
    4.000000e+01    1.400000e+02    1.090000e+03   -2.339933e-03   -3.095792e+00    3.371056e-01
    4.000000e+01    1.400000e+02    1.080000e+03   -2.372890e-03   -3.046881e+00    3.353395e-01
    4.000000e+01    1.400000e+02    1.070000e+03   -2.405847e-03   -2.998224e+00    3.335487e-01
    4.000000e+01    1.400000e+02    1.060000e+03   -2.438804e-03   -2.949825e+00    3.317333e-01
    4.000000e+01    1.400000e+02    1.050000e+03   -2.471760e-03   -2.901686e+00    3.298931e-01
    4.000000e+01    1.400000e+02    1.040000e+03   -2.504717e-03   -2.853812e+00    3.280282e-01
    4.000000e+01    1.400000e+02    1.030000e+03   -2.537674e-03   -2.806207e+00    3.261387e-01
    4.000000e+01    1.400000e+02    1.020000e+03   -2.570631e-03   -2.758873e+00    3.242244e-01
    4.000000e+01    1.400000e+02    1.010000e+03   -2.603587e-03   -2.711814e+00    3.222854e-01
    4.000000e+01    1.400000e+02    1.000000e+03   -2.636544e-03   -2.665035e+00    3.203217e-01
    4.000000e+01    1.400000e+02    9.900000e+02   -2.669501e-03   -2.618537e+00    3.183334e-01
    4.000000e+01    1.400000e+02    9.800000e+02   -2.702458e-03   -2.572325e+00    3.163203e-01
    4.000000e+01    1.400000e+02    9.700000e+02   -2.735414e-03   -2.526403e+00    3.142825e-01
    4.000000e+01    1.400000e+02    9.600000e+02   -2.768371e-03   -2.480773e+00    3.122200e-01
    4.000000e+01    1.400000e+02    9.500000e+02   -2.801328e-03   -2.435440e+00    3.101329e-01
    4.000000e+01    1.400000e+02    9.400000e+02   -2.834285e-03   -2.390407e+00    3.080210e-01
    4.000000e+01    1.400000e+02    9.300000e+02   -2.867241e-03   -2.345677e+00    3.058844e-01
    4.000000e+01    1.400000e+02    9.200000e+02   -2.900198e-03   -2.301254e+00    3.037231e-01
    4.000000e+01    1.400000e+02    9.100000e+02   -2.933155e-03   -2.257142e+00    3.015372e-01
    4.000000e+01    1.400000e+02    9.000000e+02   -2.966111e-03   -2.213344e+00    2.993265e-01
    4.000000e+01    1.400000e+02    8.900000e+02   -2.999068e-03   -2.169863e+00    2.970911e-01
    4.000000e+01    1.400000e+02    8.800000e+02   -3.032025e-03   -2.126704e+00    2.948310e-01
    4.000000e+01    1.400000e+02    8.700000e+02   -3.064982e-03   -2.083869e+00    2.925463e-01
    4.000000e+01    1.400000e+02    8.600000e+02   -3.097938e-03   -2.041362e+00    2.902368e-01
    4.000000e+01    1.400000e+02    8.500000e+02   -3.130895e-03   -1.999187e+00    2.879026e-01
    4.000000e+01    1.400000e+02    8.400000e+02   -3.163852e-03   -1.957347e+00    2.855437e-01
    4.000000e+01    1.400000e+02    8.300000e+02   -3.196809e-03   -1.915846e+00    2.831602e-01
    4.000000e+01    1.400000e+02    8.200000e+02   -3.229765e-03   -1.874687e+00    2.807519e-01
    4.000000e+01    1.400000e+02    8.100000e+02   -3.262722e-03   -1.833874e+00    2.783189e-01
    4.000000e+01    1.400000e+02    8.000000e+02   -3.295679e-03   -1.793411e+00    2.758612e-01
    4.000000e+01    1.400000e+02    7.900000e+02   -3.328636e-03   -1.753300e+00    2.733788e-01
    4.000000e+01    1.400000e+02    7.800000e+02   -3.361592e-03   -1.713546e+00    2.708718e-01
    4.000000e+01    1.400000e+02    7.700000e+02   -3.394549e-03   -1.674151e+00    2.683400e-01
    4.000000e+01    1.400000e+02    7.600000e+02   -3.427506e-03   -1.635120e+00    2.657835e-01
    4.000000e+01    1.400000e+02    7.500000e+02   -3.460463e-03   -1.596456e+00    2.632023e-01
    4.000000e+01    1.400000e+02    7.400000e+02   -3.493419e-03   -1.558162e+00    2.605964e-01
    4.000000e+01    1.400000e+02    7.300000e+02   -3.526376e-03   -1.520243e+00    2.579659e-01
    4.000000e+01    1.400000e+02    7.200000e+02   -3.559333e-03   -1.482701e+00    2.553106e-01
    4.000000e+01    1.400000e+02    7.100000e+02   -3.592289e-03   -1.445540e+00    2.526306e-01
    4.000000e+01    1.400000e+02    7.000000e+02   -3.625246e-03   -1.408764e+00    2.499259e-01
    4.000000e+01    1.400000e+02    6.900000e+02   -3.658203e-03   -1.372376e+00    2.471965e-01
    4.000000e+01    1.400000e+02    6.800000e+02   -3.691160e-03   -1.336379e+00    2.444425e-01
    4.000000e+01    1.400000e+02    6.700000e+02   -3.724116e-03   -1.300778e+00    2.416637e-01
    4.000000e+01    1.400000e+02    6.600000e+02   -3.757073e-03   -1.265576e+00    2.388602e-01
    4.000000e+01    1.400000e+02    6.500000e+02   -3.790030e-03   -1.230775e+00    2.360320e-01
    4.000000e+01    1.400000e+02    6.400000e+02   -3.822987e-03   -1.196381e+00    2.331791e-01
    4.000000e+01    1.400000e+02    6.300000e+02   -3.855943e-03   -1.162396e+00    2.303015e-01
    4.000000e+01    1.400000e+02    6.200000e+02   -3.888900e-03   -1.128824e+00    2.273993e-01
    4.000000e+01    1.400000e+02    6.100000e+02   -3.921857e-03   -1.095668e+00    2.244723e-01
    4.000000e+01    1.400000e+02    6.000000e+02   -3.954813e-03   -1.062932e+00    2.215206e-01
    4.000000e+01    1.400000e+02    5.900000e+02   -3.987770e-03   -1.030619e+00    2.185442e-01
    4.000000e+01    1.400000e+02    5.800000e+02   -4.020727e-03   -9.987335e-01    2.155431e-01
    4.000000e+01    1.400000e+02    5.700000e+02   -4.053684e-03   -9.672784e-01    2.125173e-01
    4.000000e+01    1.400000e+02    5.600000e+02   -4.086640e-03   -9.362573e-01    2.094668e-01
    4.000000e+01    1.400000e+02    5.500000e+02   -4.119597e-03   -9.056738e-01    2.063917e-01
    4.000000e+01    1.400000e+02    5.400000e+02   -4.152554e-03   -8.755313e-01    2.032918e-01
    4.000000e+01    1.400000e+02    5.300000e+02   -4.185511e-03   -8.458335e-01    2.001672e-01
    4.000000e+01    1.400000e+02    5.200000e+02   -4.218467e-03   -8.165837e-01    1.970179e-01
    4.000000e+01    1.400000e+02    5.100000e+02   -4.251424e-03   -7.877857e-01    1.938439e-01
    4.000000e+01    1.400000e+02    5.000000e+02   -4.284381e-03   -7.594428e-01    1.906452e-01
    4.000000e+01    1.400000e+02    4.900000e+02   -4.317337e-03   -7.315587e-01    1.874218e-01
    4.000000e+01    1.400000e+02    4.800000e+02   -4.350294e-03   -7.041368e-01    1.841737e-01
    4.000000e+01    1.400000e+02    4.700000e+02   -4.383251e-03   -6.771806e-01    1.809010e-01
    4.000000e+01    1.400000e+02    4.600000e+02   -4.416208e-03   -6.506938e-01    1.776035e-01
    4.000000e+01    1.400000e+02    4.500000e+02   -4.449164e-03   -6.246798e-01    1.742813e-01
    4.000000e+01    1.400000e+02    4.400000e+02   -4.482121e-03   -5.991422e-01    1.709344e-01
    4.000000e+01    1.400000e+02    4.300000e+02   -4.515078e-03   -5.740845e-01    1.675628e-01
    4.000000e+01    1.400000e+02    4.200000e+02   -4.548035e-03   -5.495102e-01    1.641665e-01
    4.000000e+01    1.400000e+02    4.100000e+02   -4.580991e-03   -5.254228e-01    1.607455e-01
    4.000000e+01    1.400000e+02    4.000000e+02   -4.613948e-03   -5.018259e-01    1.572998e-01
    4.000000e+01    1.400000e+02    3.900000e+02   -4.646904e-03   -4.787231e-01    1.538294e-01
    4.000000e+01    1.400000e+02    3.800000e+02   -4.679861e-03   -4.561177e-01    1.503344e-01
    4.000000e+01    1.400000e+02    3.700000e+02   -4.712817e-03   -4.340134e-01    1.468146e-01
    4.000000e+01    1.400000e+02    3.600000e+02   -4.745774e-03   -4.124138e-01    1.432701e-01
    4.000000e+01    1.400000e+02    3.500000e+02   -4.778730e-03   -3.913222e-01    1.397009e-01
    4.000000e+01    1.400000e+02    3.400000e+02   -4.811687e-03   -3.707423e-01    1.361070e-01
    4.000000e+01    1.400000e+02    3.300000e+02   -4.844644e-03   -3.506775e-01    1.324884e-01
    4.000000e+01    1.400000e+02    3.200000e+02   -4.877603e-03   -3.311315e-01    1.288451e-01
    4.000000e+01    1.400000e+02    3.100000e+02   -4.910563e-03   -3.121076e-01    1.251771e-01
    4.000000e+01    1.400000e+02    3.000000e+02   -4.943527e-03   -2.936096e-01    1.214844e-01
    4.000000e+01    1.400000e+02    2.900000e+02   -4.976495e-03   -2.756408e-01    1.177671e-01
    4.000000e+01    1.400000e+02    2.800000e+02   -5.009469e-03   -2.582047e-01    1.140250e-01
    4.000000e+01    1.400000e+02    2.700000e+02   -5.042451e-03   -2.413050e-01    1.102582e-01
    4.000000e+01    1.400000e+02    2.600000e+02   -5.075441e-03   -2.249452e-01    1.064667e-01
    4.000000e+01    1.400000e+02    2.500000e+02   -5.108440e-03   -2.091287e-01    1.026505e-01
    4.000000e+01    1.400000e+02    2.400000e+02   -5.141445e-03   -1.938592e-01    9.880964e-02
    4.000000e+01    1.400000e+02    2.300000e+02   -5.174452e-03   -1.791402e-01    9.494402e-02
    4.000000e+01    1.400000e+02    2.200000e+02   -5.207448e-03   -1.649754e-01    9.105367e-02
    4.000000e+01    1.400000e+02    2.100000e+02   -5.240415e-03   -1.513684e-01    8.713856e-02
    4.000000e+01    1.400000e+02    2.000000e+02   -5.273324e-03   -1.383231e-01    8.319868e-02
    4.000000e+01    1.400000e+02    1.900000e+02   -5.306139e-03   -1.258433e-01    7.923401e-02
    4.000000e+01    1.400000e+02    1.800000e+02   -5.338818e-03   -1.139327e-01    7.524455e-02
    4.000000e+01    1.400000e+02    1.700000e+02   -5.371325e-03   -1.025955e-01    7.123033e-02
    4.000000e+01    1.400000e+02    1.600000e+02   -5.403658e-03   -9.183535e-02    6.719140e-02
    4.000000e+01    1.400000e+02    1.500000e+02   -5.435884e-03   -8.165599e-02    6.312796e-02
    4.000000e+01    1.400000e+02    1.400000e+02   -5.468218e-03   -7.206056e-02    5.904031e-02
    4.000000e+01    1.400000e+02    1.300000e+02   -5.501111e-03   -6.305142e-02    5.492904e-02
    4.000000e+01    1.400000e+02    1.200000e+02   -5.535378e-03   -5.462952e-02    5.079517e-02
    4.000000e+01    1.400000e+02    1.100000e+02   -5.572307e-03   -4.679387e-02    4.664039e-02
    4.000000e+01    1.400000e+02    1.000000e+02   -5.613675e-03   -3.954072e-02    4.246748e-02
    4.000000e+01    1.400000e+02    9.000000e+01   -5.661482e-03   -3.286298e-02    3.828079e-02
    4.000000e+01    1.400000e+02    8.000000e+01   -5.717023e-03   -2.674999e-02    3.408695e-02
    4.000000e+01    1.400000e+02    7.000000e+01   -5.778617e-03   -2.118856e-02    2.989535e-02
    4.000000e+01    1.400000e+02    6.000000e+01   -5.836769e-03   -1.616663e-02    2.571806e-02
    4.000000e+01    1.400000e+02    5.000000e+01   -5.864988e-03   -1.168273e-02    2.156754e-02
    4.000000e+01    1.400000e+02    4.000000e+01   -5.802639e-03   -7.763203e-03    1.745134e-02
    4.000000e+01    1.400000e+02    3.000000e+01   -5.532192e-03   -4.505609e-03    1.335393e-02
    4.000000e+01    1.400000e+02    2.000000e+01   -4.822132e-03   -2.045073e-03    9.243638e-03
    4.000000e+01    1.400000e+02    1.000000e+01   -3.414087e-03   -1.011595e-03    4.779084e-03
    3.111111e+01    1.400000e+02    0.000000e+00    1.759953e-11    2.460209e-11    6.506759e-11
    2.222222e+01    1.400000e+02    0.000000e+00   -9.047462e-12    3.541239e-11    4.640664e-11
    1.333333e+01    1.400000e+02    0.000000e+00   -2.444249e-10    3.748891e-10   -1.259147e-10
    4.444445e+00    1.400000e+02    0.000000e+00    8.426017e-11   -2.718613e-10   -1.422727e-10
   -4.444445e+00    1.400000e+02    0.000000e+00   -2.750698e-10   -1.529568e-10    1.822821e-11
   -1.333333e+01    1.400000e+02    0.000000e+00    3.170663e-11   -1.577810e-11   -2.742256e-11
   -2.222222e+01    1.400000e+02    0.000000e+00   -1.937294e-11    1.663442e-10   -1.694340e-11
   -3.111111e+01    1.400000e+02    0.000000e+00    8.992684e-12   -1.178152e-12    8.259198e-12
   -4.000000e+01    1.400000e+02    1.000000e+01    3.414087e-03   -1.011595e-03    4.779084e-03
   -4.000000e+01    1.400000e+02    2.000000e+01    4.822132e-03   -2.045073e-03    9.243638e-03
   -4.000000e+01    1.400000e+02    3.000000e+01    5.532192e-03   -4.505609e-03    1.335393e-02
   -4.000000e+01    1.400000e+02    4.000000e+01    5.802638e-03   -7.763203e-03    1.745134e-02
   -4.000000e+01    1.400000e+02    5.000000e+01    5.864988e-03   -1.168273e-02    2.156754e-02
   -4.000000e+01    1.400000e+02    6.000000e+01    5.836769e-03   -1.616663e-02    2.571806e-02
   -4.000000e+01    1.400000e+02    7.000000e+01    5.778617e-03   -2.118856e-02    2.989535e-02
   -4.000000e+01    1.400000e+02    8.000000e+01    5.717023e-03   -2.674999e-02    3.408695e-02
   -4.000000e+01    1.400000e+02    9.000000e+01    5.661481e-03   -3.286298e-02    3.828079e-02
   -4.000000e+01    1.400000e+02    1.000000e+02    5.613674e-03   -3.954072e-02    4.246748e-02
   -4.000000e+01    1.400000e+02    1.100000e+02    5.572307e-03   -4.679387e-02    4.664039e-02
   -4.000000e+01    1.400000e+02    1.200000e+02    5.535378e-03   -5.462952e-02    5.079517e-02
   -4.000000e+01    1.400000e+02    1.300000e+02    5.501111e-03   -6.305142e-02    5.492904e-02
   -4.000000e+01    1.400000e+02    1.400000e+02    5.468218e-03   -7.206056e-02    5.904031e-02
   -4.000000e+01    1.400000e+02    1.500000e+02    5.435884e-03   -8.165599e-02    6.312796e-02
   -4.000000e+01    1.400000e+02    1.600000e+02    5.403657e-03   -9.183535e-02    6.719140e-02
   -4.000000e+01    1.400000e+02    1.700000e+02    5.371325e-03   -1.025955e-01    7.123033e-02
   -4.000000e+01    1.400000e+02    1.800000e+02    5.338817e-03   -1.139327e-01    7.524455e-02
   -4.000000e+01    1.400000e+02    1.900000e+02    5.306139e-03   -1.258433e-01    7.923401e-02
   -4.000000e+01    1.400000e+02    2.000000e+02    5.273324e-03   -1.383231e-01    8.319868e-02
   -4.000000e+01    1.400000e+02    2.100000e+02    5.240414e-03   -1.513684e-01    8.713856e-02
   -4.000000e+01    1.400000e+02    2.200000e+02    5.207447e-03   -1.649754e-01    9.105367e-02
   -4.000000e+01    1.400000e+02    2.300000e+02    5.174451e-03   -1.791402e-01    9.494402e-02
   -4.000000e+01    1.400000e+02    2.400000e+02    5.141445e-03   -1.938592e-01    9.880964e-02
   -4.000000e+01    1.400000e+02    2.500000e+02    5.108439e-03   -2.091287e-01    1.026505e-01
   -4.000000e+01    1.400000e+02    2.600000e+02    5.075440e-03   -2.249452e-01    1.064667e-01
   -4.000000e+01    1.400000e+02    2.700000e+02    5.042449e-03   -2.413050e-01    1.102582e-01
   -4.000000e+01    1.400000e+02    2.800000e+02    5.009468e-03   -2.582047e-01    1.140250e-01
   -4.000000e+01    1.400000e+02    2.900000e+02    4.976494e-03   -2.756408e-01    1.177671e-01
   -4.000000e+01    1.400000e+02    3.000000e+02    4.943526e-03   -2.936096e-01    1.214844e-01
   -4.000000e+01    1.400000e+02    3.100000e+02    4.910562e-03   -3.121076e-01    1.251771e-01
   -4.000000e+01    1.400000e+02    3.200000e+02    4.877602e-03   -3.311315e-01    1.288451e-01
   -4.000000e+01    1.400000e+02    3.300000e+02    4.844643e-03   -3.506775e-01    1.324884e-01
   -4.000000e+01    1.400000e+02    3.400000e+02    4.811685e-03   -3.707423e-01    1.361070e-01
   -4.000000e+01    1.400000e+02    3.500000e+02    4.778729e-03   -3.913222e-01    1.397009e-01
   -4.000000e+01    1.400000e+02    3.600000e+02    4.745772e-03   -4.124138e-01    1.432701e-01
   -4.000000e+01    1.400000e+02    3.700000e+02    4.712816e-03   -4.340134e-01    1.468146e-01
   -4.000000e+01    1.400000e+02    3.800000e+02    4.679859e-03   -4.561177e-01    1.503343e-01
   -4.000000e+01    1.400000e+02    3.900000e+02    4.646903e-03   -4.787231e-01    1.538294e-01
   -4.000000e+01    1.400000e+02    4.000000e+02    4.613946e-03   -5.018259e-01    1.572998e-01
   -4.000000e+01    1.400000e+02    4.100000e+02    4.580989e-03   -5.254228e-01    1.607455e-01
   -4.000000e+01    1.400000e+02    4.200000e+02    4.548033e-03   -5.495102e-01    1.641665e-01
   -4.000000e+01    1.400000e+02    4.300000e+02    4.515076e-03   -5.740845e-01    1.675628e-01
   -4.000000e+01    1.400000e+02    4.400000e+02    4.482119e-03   -5.991422e-01    1.709344e-01
   -4.000000e+01    1.400000e+02    4.500000e+02    4.449162e-03   -6.246798e-01    1.742813e-01
   -4.000000e+01    1.400000e+02    4.600000e+02    4.416205e-03   -6.506938e-01    1.776035e-01
   -4.000000e+01    1.400000e+02    4.700000e+02    4.383249e-03   -6.771806e-01    1.809010e-01
   -4.000000e+01    1.400000e+02    4.800000e+02    4.350292e-03   -7.041368e-01    1.841737e-01
   -4.000000e+01    1.400000e+02    4.900000e+02    4.317335e-03   -7.315587e-01    1.874218e-01
   -4.000000e+01    1.400000e+02    5.000000e+02    4.284378e-03   -7.594428e-01    1.906452e-01
   -4.000000e+01    1.400000e+02    5.100000e+02    4.251421e-03   -7.877857e-01    1.938439e-01
   -4.000000e+01    1.400000e+02    5.200000e+02    4.218465e-03   -8.165837e-01    1.970179e-01
   -4.000000e+01    1.400000e+02    5.300000e+02    4.185508e-03   -8.458335e-01    2.001672e-01
   -4.000000e+01    1.400000e+02    5.400000e+02    4.152551e-03   -8.755313e-01    2.032918e-01
   -4.000000e+01    1.400000e+02    5.500000e+02    4.119594e-03   -9.056738e-01    2.063917e-01
   -4.000000e+01    1.400000e+02    5.600000e+02    4.086637e-03   -9.362573e-01    2.094668e-01
   -4.000000e+01    1.400000e+02    5.700000e+02    4.053681e-03   -9.672784e-01    2.125173e-01
   -4.000000e+01    1.400000e+02    5.800000e+02    4.020724e-03   -9.987335e-01    2.155431e-01
   -4.000000e+01    1.400000e+02    5.900000e+02    3.987767e-03   -1.030619e+00    2.185442e-01
   -4.000000e+01    1.400000e+02    6.000000e+02    3.954810e-03   -1.062932e+00    2.215206e-01
   -4.000000e+01    1.400000e+02    6.100000e+02    3.921853e-03   -1.095668e+00    2.244723e-01
   -4.000000e+01    1.400000e+02    6.200000e+02    3.888897e-03   -1.128824e+00    2.273993e-01
   -4.000000e+01    1.400000e+02    6.300000e+02    3.855940e-03   -1.162396e+00    2.303015e-01
   -4.000000e+01    1.400000e+02    6.400000e+02    3.822983e-03   -1.196381e+00    2.331791e-01
   -4.000000e+01    1.400000e+02    6.500000e+02    3.790026e-03   -1.230775e+00    2.360320e-01
   -4.000000e+01    1.400000e+02    6.600000e+02    3.757069e-03   -1.265576e+00    2.388602e-01
   -4.000000e+01    1.400000e+02    6.700000e+02    3.724113e-03   -1.300778e+00    2.416637e-01
   -4.000000e+01    1.400000e+02    6.800000e+02    3.691156e-03   -1.336379e+00    2.444425e-01
   -4.000000e+01    1.400000e+02    6.900000e+02    3.658199e-03   -1.372376e+00    2.471965e-01
   -4.000000e+01    1.400000e+02    7.000000e+02    3.625242e-03   -1.408764e+00    2.499259e-01
   -4.000000e+01    1.400000e+02    7.100000e+02    3.592285e-03   -1.445540e+00    2.526306e-01
   -4.000000e+01    1.400000e+02    7.200000e+02    3.559329e-03   -1.482701e+00    2.553106e-01
   -4.000000e+01    1.400000e+02    7.300000e+02    3.526372e-03   -1.520243e+00    2.579659e-01
   -4.000000e+01    1.400000e+02    7.400000e+02    3.493415e-03   -1.558162e+00    2.605964e-01
   -4.000000e+01    1.400000e+02    7.500000e+02    3.460458e-03   -1.596456e+00    2.632023e-01
   -4.000000e+01    1.400000e+02    7.600000e+02    3.427501e-03   -1.635120e+00    2.657835e-01
   -4.000000e+01    1.400000e+02    7.700000e+02    3.394545e-03   -1.674151e+00    2.683400e-01
   -4.000000e+01    1.400000e+02    7.800000e+02    3.361588e-03   -1.713546e+00    2.708718e-01
   -4.000000e+01    1.400000e+02    7.900000e+02    3.328631e-03   -1.753300e+00    2.733788e-01
   -4.000000e+01    1.400000e+02    8.000000e+02    3.295674e-03   -1.793411e+00    2.758612e-01
   -4.000000e+01    1.400000e+02    8.100000e+02    3.262717e-03   -1.833874e+00    2.783189e-01
   -4.000000e+01    1.400000e+02    8.200000e+02    3.229761e-03   -1.874687e+00    2.807519e-01
   -4.000000e+01    1.400000e+02    8.300000e+02    3.196804e-03   -1.915846e+00    2.831602e-01
   -4.000000e+01    1.400000e+02    8.400000e+02    3.163847e-03   -1.957347e+00    2.855437e-01
   -4.000000e+01    1.400000e+02    8.500000e+02    3.130890e-03   -1.999187e+00    2.879026e-01
   -4.000000e+01    1.400000e+02    8.600000e+02    3.097933e-03   -2.041362e+00    2.902368e-01
   -4.000000e+01    1.400000e+02    8.700000e+02    3.064977e-03   -2.083869e+00    2.925463e-01
   -4.000000e+01    1.400000e+02    8.800000e+02    3.032020e-03   -2.126704e+00    2.948310e-01
   -4.000000e+01    1.400000e+02    8.900000e+02    2.999063e-03   -2.169863e+00    2.970911e-01