TITLE="test case governed by poisson equation"
VARIABLES="x" "y" "u" "v" "sigax"  "sigmay" "sigmaxy"
ZONE T="flow-field", N=      153,E=     256,ET=TRIANGLE, F=FEPOINT
