TITLE="test case governed by poisson equation"
VARIABLES="x" "y" "u" "v" "sigax"  "sigmay" "sigmaxy"
ZONE T="flow-field", N=     3201,E=    6144,ET=TRIANGLE, F=FEPOINT
    0.000000e+00   -0.000000e+00    1.278230e-11    2.241619e-12    3.934404e+05    1.188328e+05   -8.496700e+04
    0.000000e+00   -3.125000e-02    2.291448e-11    1.213948e-10    3.341901e+05    7.796202e+04   -5.851210e+04
    0.000000e+00   -6.250000e-02    8.740945e-11    1.175187e-11    2.857448e+05    7.134220e+04   -4.388848e+04
    0.000000e+00   -9.375000e-02   -6.373095e-11   -8.397607e-12    2.575056e+05    6.777996e+04   -3.309157e+04
    0.000000e+00   -1.250000e-01   -1.926699e-10   -4.196136e-12    2.360065e+05    6.409365e+04   -2.435912e+04
    0.000000e+00   -1.562500e-01    2.773156e-10   -6.953427e-12    2.195585e+05    6.119195e+04   -1.806062e+04
    0.000000e+00   -1.875000e-01   -8.000533e-11    2.434441e-10    2.031595e+05    5.685210e+04   -1.342250e+04
    0.000000e+00   -2.187500e-01   -1.165311e-10   -2.076653e-11    1.870782e+05    5.205179e+04   -8.884265e+03
    0.000000e+00   -2.500000e-01    2.380737e-10   -1.104957e-10    1.735045e+05    4.936990e+04   -5.983518e+03
    0.000000e+00   -2.812500e-01    2.280707e-11    9.756566e-13    1.591668e+05    4.592623e+04   -3.734077e+03
    0.000000e+00   -3.125000e-01    5.661170e-11    1.453644e-11    1.451648e+05    4.185277e+04   -1.615890e+03
    0.000000e+00   -3.437500e-01   -2.748505e-10   -6.188091e-12    1.306788e+05    3.749201e+04    1.252373e+01
    0.000000e+00   -3.750000e-01    1.268582e-11   -2.174970e-10    1.177382e+05    3.436769e+04    1.104932e+03
    0.000000e+00   -4.062500e-01   -1.950982e-10   -2.884846e-11    1.046051e+05    3.150382e+04    1.484300e+03
    0.000000e+00   -4.375000e-01   -1.750855e-10    3.147886e-11    9.136893e+04    2.731023e+04    2.363857e+03
    0.000000e+00   -4.687500e-01    1.067596e-12   -2.658765e-11    7.927000e+04    2.384021e+04    2.191373e+03
    0.000000e+00   -5.000000e-01   -1.164232e-10    8.359886e-12    6.681699e+04    2.071347e+04    1.671411e+03
    0.000000e+00   -5.312500e-01    4.798890e-11    6.281440e-11    5.525448e+04    1.872456e+04    1.169300e+03
    0.000000e+00   -5.625000e-01    1.386612e-11    6.265852e-10    4.387149e+04    1.399676e+04    8.279958e+02
    0.000000e+00   -5.937500e-01    1.177002e-10    8.007079e-12    3.261797e+04    9.197969e+03   -7.025841e+02
    0.000000e+00   -6.250000e-01    6.746868e-11   -4.818655e-11    2.228464e+04    7.752143e+03   -2.879221e+03
    0.000000e+00   -6.562500e-01    6.478704e-12   -5.042798e-11    1.197679e+04    5.230675e+03   -4.677278e+03
    0.000000e+00   -6.875000e-01   -1.333952e-10    2.742837e-11    1.907372e+03    2.499900e+03   -6.356540e+03
    0.000000e+00   -7.187500e-01    1.702104e-11    3.384694e-11   -6.965220e+03   -3.368606e+02   -8.286277e+03
    0.000000e+00   -7.500000e-01   -6.773729e-11   -9.592368e-12   -1.569884e+04   -3.288152e+03   -1.069316e+04
    0.000000e+00   -7.812500e-01    9.452944e-11   -2.126111e-10   -2.352679e+04   -5.011872e+03   -1.317438e+04
    0.000000e+00   -8.125000e-01    2.404078e-10   -2.678931e-11   -3.016577e+04   -6.323829e+03   -1.602011e+04
    0.000000e+00   -8.437500e-01   -1.146603e-11    2.651683e-11   -3.748384e+04   -8.941158e+03   -1.875038e+04
    0.000000e+00   -8.750000e-01   -2.099281e-11   -3.430939e-11   -4.386334e+04   -1.081171e+04   -2.138515e+04
    0.000000e+00   -9.062500e-01   -1.265123e-10    1.833044e-11   -4.957305e+04   -1.238973e+04   -2.412113e+04
    0.000000e+00   -9.375000e-01   -8.916243e-12   -1.640382e-11   -5.428728e+04   -1.357067e+04   -2.678767e+04
    0.000000e+00   -9.687500e-01    3.006391e-11    1.469009e-10   -5.830358e+04   -1.503884e+04   -2.953071e+04
    0.000000e+00   -1.000000e+00    5.008687e-11    1.086378e-11   -6.202216e+04   -1.639962e+04   -3.234727e+04
    0.000000e+00   -1.031250e+00    9.306946e-11    1.025768e-10   -6.492151e+04   -1.722158e+04   -3.498553e+04
    0.000000e+00   -1.062500e+00    1.464444e-10    1.801673e-11   -6.720833e+04   -1.823801e+04   -3.787021e+04
    0.000000e+00   -1.093750e+00   -1.453912e-10    2.877016e-11   -6.973459e+04   -1.804292e+04   -4.050087e+04
    0.000000e+00   -1.125000e+00   -7.901426e-11    3.524225e-10   -7.135081e+04   -1.943785e+04   -4.192654e+04
    0.000000e+00   -1.156250e+00    8.406809e-11    1.775053e-11   -7.206902e+04   -2.096265e+04   -4.428455e+04
    0.000000e+00   -1.187500e+00    3.772785e-11   -9.149649e-11   -7.248590e+04   -2.013756e+04   -4.683638e+04
    0.000000e+00   -1.218750e+00    2.081685e-11    4.717591e-11   -7.274631e+04   -2.023220e+04   -4.855406e+04
    0.000000e+00   -1.250000e+00   -1.088066e-10   -1.854474e-11   -7.299148e+04   -2.059666e+04   -5.025422e+04
    0.000000e+00   -1.281250e+00   -2.672045e-10    5.816369e-11   -7.316872e+04   -2.074738e+04   -5.137040e+04
    0.000000e+00   -1.312500e+00   -1.084255e-10   -4.890394e-12   -7.252380e+04   -2.154120e+04   -5.233426e+04
    0.000000e+00   -1.343750e+00   -1.076222e-10   -2.498115e-10   -7.174679e+04   -2.073305e+04   -5.384043e+04
    0.000000e+00   -1.375000e+00   -9.512883e-11    1.261264e-11   -7.099822e+04   -2.021699e+04   -5.439753e+04
    0.000000e+00   -1.406250e+00    2.401423e-11   -7.430720e-11   -7.018625e+04   -2.073585e+04   -5.494966e+04
    0.000000e+00   -1.437500e+00   -3.051373e-11   -5.982604e-11   -6.941480e+04   -1.911519e+04   -5.550948e+04
    0.000000e+00   -1.468750e+00    1.119678e-10    4.918153e-10   -6.834258e+04   -2.008690e+04   -5.505524e+04
    0.000000e+00   -1.500000e+00   -2.564404e-12    2.281222e-11   -6.829368e+04   -2.197881e+04   -5.542935e+04
    0.000000e+00   -1.531250e+00    5.052201e-11   -1.374421e-10   -6.776917e+04   -2.055651e+04   -5.561123e+04
    0.000000e+00   -1.562500e+00    2.149263e-10   -5.782895e-12   -6.700954e+04   -2.043310e+04   -5.545522e+04
    0.000000e+00   -1.593750e+00    1.925480e-11   -1.556963e-10   -6.757467e+04   -2.060032e+04   -5.525470e+04
    0.000000e+00   -1.625000e+00    1.971382e-10   -9.897387e-12   -6.753243e+04   -2.035816e+04   -5.473589e+04
    0.000000e+00   -1.656250e+00   -1.620274e-10   -8.033055e-12   -6.911501e+04   -2.106408e+04   -5.425066e+04
    0.000000e+00   -1.687500e+00   -2.594497e-11    2.507398e-11   -7.053259e+04   -2.162688e+04   -5.310967e+04
    0.000000e+00   -1.718750e+00   -1.564377e-12    3.936456e-12   -7.230271e+04   -2.204174e+04   -5.246493e+04
    0.000000e+00   -1.750000e+00    7.540691e-11    1.166285e-10   -7.487347e+04   -2.307142e+04   -5.161797e+04
    0.000000e+00   -1.781250e+00   -3.351478e-12    6.553313e-12   -7.894699e+04   -2.462311e+04   -5.100554e+04
    0.000000e+00   -1.812500e+00   -5.924460e-11   -2.873294e-11   -8.482451e+04   -2.610597e+04   -4.923527e+04
    0.000000e+00   -1.843750e+00    1.166410e-09   -1.028203e-10   -8.826208e+04   -2.702665e+04   -4.907770e+04
    0.000000e+00   -1.875000e+00    1.421421e-11    4.459192e-11   -9.886086e+04   -2.954304e+04   -5.009883e+04
    0.000000e+00   -1.906250e+00    9.763994e-12   -1.507055e-11   -1.130570e+05   -3.342370e+04   -4.873876e+04
    0.000000e+00   -1.937500e+00   -1.669003e-11   -1.772541e-11   -1.319310e+05   -3.756391e+04   -4.963748e+04
    0.000000e+00   -1.968750e+00    2.084169e-11   -3.504842e-11   -1.645769e+05   -4.354393e+04   -5.291740e+04
    0.000000e+00   -2.000000e+00   -2.725645e-10    6.654427e-11   -2.240969e+05   -4.062757e+04   -5.169480e+04
    3.125000e-02   -0.000000e+00   -5.322986e-08    3.288651e-08    3.389687e+05    5.732491e+04   -4.953083e+04
    3.125000e-02   -3.125000e-02   -4.273110e-08    2.292387e-08    3.009137e+05    4.044579e+04   -3.479464e+04
    3.125000e-02   -6.250000e-02   -3.754052e-08    1.663347e-08    2.738292e+05    4.809805e+04   -3.269743e+04
    3.125000e-02   -9.375000e-02   -3.418986e-08    1.242097e-08    2.512201e+05    5.114588e+04   -2.711906e+04
    3.125000e-02   -1.250000e-01   -3.151764e-08    9.424745e-09    2.321581e+05    5.142842e+04   -2.095995e+04
    3.125000e-02   -1.562500e-01   -2.897112e-08    7.089783e-09    2.158424e+05    5.072591e+04   -1.631427e+04
    3.125000e-02   -1.875000e-01   -2.699683e-08    5.275140e-09    1.990981e+05    4.808148e+04   -1.208531e+04
    3.125000e-02   -2.187500e-01   -2.493105e-08    3.811363e-09    1.838824e+05    4.581889e+04   -8.329336e+03
    3.125000e-02   -2.500000e-01   -2.277734e-08    2.592540e-09    1.697621e+05    4.356656e+04   -5.768931e+03
    3.125000e-02   -2.812500e-01   -2.092238e-08    1.653302e-09    1.551663e+05    4.065448e+04   -3.463738e+03
    3.125000e-02   -3.125000e-01   -1.907100e-08    9.030276e-10    1.410401e+05    3.774649e+04   -1.868660e+03
    3.125000e-02   -3.437500e-01   -1.736979e-08    3.709429e-10    1.267803e+05    3.446565e+04   -2.333136e+02
    3.125000e-02   -3.750000e-01   -1.541930e-08   -3.219520e-11    1.138110e+05    3.212262e+04    4.828804e+02
    3.125000e-02   -4.062500e-01   -1.371882e-08   -2.265726e-10    1.003212e+05    2.907701e+04    1.131890e+03
    3.125000e-02   -4.375000e-01   -1.197926e-08   -2.736769e-10    8.746638e+04    2.595181e+04    1.553981e+03
    3.125000e-02   -4.687500e-01   -1.019460e-08   -2.241252e-10    7.510584e+04    2.319543e+04    1.237439e+03
    3.125000e-02   -5.000000e-01   -8.546034e-09   -1.514417e-11    6.268235e+04    2.041924e+04    9.211513e+02
    3.125000e-02   -5.312500e-01   -6.816917e-09    3.256577e-10    5.140443e+04    1.832145e+04    2.427329e+02
    3.125000e-02   -5.625000e-01   -5.409140e-09    7.533746e-10    3.961855e+04    1.386308e+04   -5.548780e+02
    3.125000e-02   -5.937500e-01   -3.835658e-09    1.165904e-09    2.876707e+04    1.166878e+04   -2.279507e+03
    3.125000e-02   -6.250000e-01   -2.410986e-09    1.700567e-09    1.816388e+04    9.290778e+03   -3.993429e+03
    3.125000e-02   -6.562500e-01   -1.077417e-09    2.356040e-09    7.958898e+03    7.059280e+03   -5.848540e+03
    3.125000e-02   -6.875000e-01    1.502039e-10    3.132340e-09   -1.754656e+03    4.624254e+03   -7.597211e+03
    3.125000e-02   -7.187500e-01    1.407400e-09    3.951818e-09   -1.057143e+04    2.307695e+03   -9.828261e+03
    3.125000e-02   -7.500000e-01    2.521089e-09    4.832874e-09   -1.921725e+04   -7.006376e+01   -1.211500e+04
    3.125000e-02   -7.812500e-01    3.716016e-09    5.763538e-09   -2.659865e+04   -1.532272e+03   -1.460980e+04
    3.125000e-02   -8.125000e-01    4.739624e-09    6.741330e-09   -3.362431e+04   -3.469327e+03   -1.743505e+04
    3.125000e-02   -8.437500e-01    5.507117e-09    7.777419e-09   -4.066913e+04   -5.438005e+03   -2.010208e+04
    3.125000e-02   -8.750000e-01    6.286642e-09    8.833506e-09   -4.667897e+04   -6.931001e+03   -2.286729e+04
    3.125000e-02   -9.062500e-01    6.955414e-09    9.923720e-09   -5.215828e+04   -8.569139e+03   -2.547208e+04
    3.125000e-02   -9.375000e-01    7.659066e-09    1.100743e-08   -5.653128e+04   -9.717079e+03   -2.820773e+04
    3.125000e-02   -9.687500e-01    8.203200e-09    1.207491e-08   -6.059526e+04   -1.141542e+04   -3.093372e+04
    3.125000e-02   -1.000000e+00    8.709563e-09    1.310451e-08   -6.392774e+04   -1.236364e+04   -3.369093e+04
    3.125000e-02   -1.031250e+00    9.101509e-09    1.410400e-08   -6.668493e+04   -1.367350e+04   -3.628735e+04
    3.125000e-02   -1.062500e+00    9.422788e-09    1.503696e-08   -6.903460e+04   -1.447091e+04   -3.911042e+04
    3.125000e-02   -1.093750e+00    9.573962e-09    1.598713e-08   -7.106644e+04   -1.491278e+04   -4.130693e+04
    3.125000e-02   -1.125000e+00    9.686188e-09    1.687645e-08   -7.234179e+04   -1.661796e+04   -4.319035e+04
    3.125000e-02   -1.156250e+00    9.884553e-09    1.761415e-08   -7.294577e+04   -1.715299e+04   -4.554818e+04
    3.125000e-02   -1.187500e+00    9.968877e-09    1.830267e-08   -7.332120e+04   -1.736553e+04   -4.757485e+04
    3.125000e-02   -1.218750e+00    9.938422e-09    1.894030e-08   -7.351910e+04   -1.806362e+04   -4.931660e+04
    3.125000e-02   -1.250000e+00    9.845891e-09    1.951001e-08   -7.357348e+04   -1.831878e+04   -5.090621e+04
    3.125000e-02   -1.281250e+00    9.698416e-09    2.003352e-08   -7.335866e+04   -1.891931e+04   -5.194817e+04
    3.125000e-02   -1.312500e+00    9.654621e-09    2.043789e-08   -7.265816e+04   -1.949408e+04   -5.309764e+04
    3.125000e-02   -1.343750e+00    9.637390e-09    2.077351e-08   -7.178828e+04   -1.904552e+04   -5.414306e+04
    3.125000e-02   -1.375000e+00    9.526366e-09    2.108125e-08   -7.102045e+04   -1.961577e+04   -5.465803e+04
    3.125000e-02   -1.406250e+00    9.491279e-09    2.129656e-08   -7.015308e+04   -1.963729e+04   -5.527840e+04
    3.125000e-02   -1.437500e+00    9.450193e-09    2.149349e-08   -6.905989e+04   -1.910901e+04   -5.544273e+04
    3.125000e-02   -1.468750e+00    9.281550e-09    2.159651e-08   -6.842755e+04   -2.071576e+04   -5.551365e+04
    3.125000e-02   -1.500000e+00    9.184974e-09    2.156027e-08   -6.811519e+04   -2.079342e+04   -5.576449e+04
    3.125000e-02   -1.531250e+00    9.207248e-09    2.148809e-08   -6.742801e+04   -2.059144e+04   -5.559649e+04
    3.125000e-02   -1.562500e+00    9.225762e-09    2.135891e-08   -6.718165e+04   -2.109570e+04   -5.552323e+04
    3.125000e-02   -1.593750e+00    9.217983e-09    2.121663e-08   -6.745689e+04   -2.106205e+04   -5.506906e+04
    3.125000e-02   -1.625000e+00    9.308707e-09    2.102502e-08   -6.786386e+04   -2.150768e+04   -5.477696e+04
    3.125000e-02   -1.656250e+00    9.299105e-09    2.084292e-08   -6.938147e+04   -2.201767e+04   -5.399700e+04
    3.125000e-02   -1.687500e+00    9.539143e-09    2.062242e-08   -7.075700e+04   -2.267360e+04   -5.318312e+04
    3.125000e-02   -1.718750e+00    9.878880e-09    2.037420e-08   -7.283198e+04   -2.329036e+04   -5.241282e+04
    3.125000e-02   -1.750000e+00    1.030305e-08    2.009954e-08   -7.592112e+04   -2.450886e+04   -5.169109e+04
    3.125000e-02   -1.781250e+00    1.085605e-08    1.982570e-08   -8.045763e+04   -2.550848e+04   -5.095503e+04
    3.125000e-02   -1.812500e+00    1.169693e-08    1.964105e-08   -8.557650e+04   -2.705397e+04   -4.920732e+04
    3.125000e-02   -1.843750e+00    1.317986e-08    1.932307e-08   -9.136833e+04   -2.808228e+04   -4.984216e+04
    3.125000e-02   -1.875000e+00    1.409632e-08    1.928676e-08   -1.035290e+05   -3.012339e+04   -4.932385e+04
    3.125000e-02   -1.906250e+00    1.596645e-08    1.956935e-08   -1.182728e+05   -3.154765e+04   -4.858310e+04
    3.125000e-02   -1.937500e+00    1.893841e-08    2.048905e-08   -1.407966e+05   -3.193787e+04   -4.800931e+04
    3.125000e-02   -1.968750e+00    2.436333e-08    2.300708e-08   -1.823453e+05   -2.633308e+04   -4.459660e+04
    3.125000e-02   -2.000000e+00    3.845299e-08    3.082260e-08   -2.089783e+05   -1.182035e+04   -3.077692e+04
    6.250000e-02   -0.000000e+00   -1.008811e-07    5.569856e-08    3.086525e+05    1.708462e+04   -2.020509e+04
    6.250000e-02   -3.125000e-02   -8.625713e-08    4.382472e-08    2.930067e+05    1.943998e+04   -2.061984e+04
    6.250000e-02   -6.250000e-02   -7.688997e-08    3.444827e-08    2.741352e+05    2.828455e+04   -2.437710e+04
    6.250000e-02   -9.375000e-02   -7.002848e-08    2.723637e-08    2.545940e+05    3.421164e+04   -2.304126e+04
    6.250000e-02   -1.250000e-01   -6.440341e-08    2.163452e-08    2.362903e+05    3.735374e+04   -1.975770e+04
    6.250000e-02   -1.562500e-01   -5.938596e-08    1.715939e-08    2.192976e+05    3.881927e+04   -1.651173e+04
    6.250000e-02   -1.875000e-01   -5.490892e-08    1.358049e-08    2.025879e+05    3.896795e+04   -1.321004e+04
    6.250000e-02   -2.187500e-01   -5.060667e-08    1.069094e-08    1.869147e+05    3.825558e+04   -1.008719e+04
    6.250000e-02   -2.500000e-01   -4.640335e-08    8.322323e-09    1.719712e+05    3.713235e+04   -7.721610e+03
    6.250000e-02   -2.812500e-01   -4.242626e-08    6.424026e-09    1.570400e+05    3.555789e+04   -5.741280e+03
    6.250000e-02   -3.125000e-01   -3.855297e-08    4.933102e-09    1.424380e+05    3.384640e+04   -4.187017e+03
    6.250000e-02   -3.437500e-01   -3.480031e-08    3.828739e-09    1.280820e+05    3.182572e+04   -2.751670e+03
    6.250000e-02   -3.750000e-01   -3.101652e-08    3.030951e-09    1.144353e+05    2.986077e+04   -1.918646e+03
    6.250000e-02   -4.062500e-01   -2.738641e-08    2.543449e-09    1.007722e+05    2.773886e+04   -1.381534e+03
    6.250000e-02   -4.375000e-01   -2.381526e-08    2.339384e-09    8.754917e+04    2.551014e+04   -1.068627e+03
    6.250000e-02   -4.687500e-01   -2.028899e-08    2.379940e-09    7.478575e+04    2.336671e+04   -1.203035e+03
    6.250000e-02   -5.000000e-01   -1.688525e-08    2.667470e-09    6.233642e+04    2.116428e+04   -1.532236e+03
    6.250000e-02   -5.312500e-01   -1.356554e-08    3.156054e-09    5.036131e+04    1.894940e+04   -2.367593e+03
    6.250000e-02   -5.625000e-01   -1.046533e-08    3.859775e-09    3.840901e+04    1.655727e+04   -3.287987e+03
    6.250000e-02   -5.937500e-01   -7.394636e-09    4.734673e-09    2.725689e+04    1.443823e+04   -4.573069e+03
    6.250000e-02   -6.250000e-01   -4.475669e-09    5.786656e-09    1.646828e+04    1.242194e+04   -6.149692e+03
    6.250000e-02   -6.562500e-01   -1.710619e-09    7.016334e-09    6.124413e+03    1.051081e+04   -7.915192e+03
    6.250000e-02   -6.875000e-01    8.906647e-10    8.417154e-09   -3.717532e+03    8.547370e+03   -9.753590e+03
    6.250000e-02   -7.187500e-01    3.380833e-09    9.951600e-09   -1.286953e+04    6.686877e+03   -1.185377e+04
    6.250000e-02   -7.500000e-01    5.704548e-09    1.161610e-08   -2.145345e+04    4.858480e+03   -1.401129e+04
    6.250000e-02   -7.812500e-01    7.922376e-09    1.336991e-08   -2.915917e+04    3.123045e+03   -1.642733e+04
    6.250000e-02   -8.125000e-01    9.924147e-09    1.519774e-08   -3.642481e+04    1.500302e+03   -1.912609e+04
    6.250000e-02   -8.437500e-01    1.167001e-08    1.711236e-08   -4.329763e+04   -1.018042e+02   -2.173767e+04
    6.250000e-02   -8.750000e-01    1.326716e-08    1.908203e-08   -4.936198e+04   -1.591763e+03   -2.437512e+04
    6.250000e-02   -9.062500e-01    1.468653e-08    2.108886e-08   -5.473361e+04   -3.092129e+03   -2.695398e+04
    6.250000e-02   -9.375000e-01    1.597474e-08    2.308952e-08   -5.927627e+04   -4.528743e+03   -2.963525e+04
    6.250000e-02   -9.687500e-01    1.706509e-08    2.506993e-08   -6.326771e+04   -5.944592e+03   -3.228885e+04
    6.250000e-02   -1.000000e+00    1.799825e-08    2.700456e-08   -6.655962e+04   -7.268845e+03   -3.492339e+04
    6.250000e-02   -1.031250e+00    1.874934e-08    2.887779e-08   -6.929366e+04   -8.569978e+03   -3.748498e+04
    6.250000e-02   -1.062500e+00    1.934380e-08    3.067174e-08   -7.144517e+04   -9.663558e+03   -4.001234e+04
    6.250000e-02   -1.093750e+00    1.974034e-08    3.238977e-08   -7.322037e+04   -1.078811e+04   -4.231480e+04
    6.250000e-02   -1.125000e+00    2.000738e-08    3.401021e-08   -7.443587e+04   -1.201103e+04   -4.433371e+04
    6.250000e-02   -1.156250e+00    2.022570e-08    3.549089e-08   -7.494305e+04   -1.303081e+04   -4.634236e+04
    6.250000e-02   -1.187500e+00    2.031529e-08    3.683459e-08   -7.515060e+04   -1.395108e+04   -4.826641e+04
    6.250000e-02   -1.218750e+00    2.027206e-08    3.805001e-08   -7.514608e+04   -1.480599e+04   -4.997326e+04
    6.250000e-02   -1.250000e+00    2.013346e-08    3.913799e-08   -7.490566e+04   -1.555517e+04   -5.145123e+04
    6.250000e-02   -1.281250e+00    1.992305e-08    4.010269e-08   -7.445611e+04   -1.635694e+04   -5.259266e+04
    6.250000e-02   -1.312500e+00    1.973262e-08    4.092421e-08   -7.359433e+04   -1.704243e+04   -5.355739e+04
    6.250000e-02   -1.343750e+00    1.954023e-08    4.159913e-08   -7.255400e+04   -1.759224e+04   -5.445350e+04
    6.250000e-02   -1.375000e+00    1.929826e-08    4.214920e-08   -7.157995e+04   -1.818641e+04   -5.507579e+04
    6.250000e-02   -1.406250e+00    1.908606e-08    4.256795e-08   -7.041722e+04   -1.865930e+04   -5.553098e+04
    6.250000e-02   -1.437500e+00    1.885837e-08    4.285297e-08   -6.936262e+04   -1.920780e+04   -5.593265e+04
    6.250000e-02   -1.468750e+00    1.858769e-08    4.302101e-08   -6.866142e+04   -1.983657e+04   -5.611117e+04
    6.250000e-02   -1.500000e+00    1.838974e-08    4.307770e-08   -6.795558e+04   -2.031953e+04   -5.607296e+04
    6.250000e-02   -1.531250e+00    1.828673e-08    4.302463e-08   -6.728790e+04   -2.079211e+04   -5.597174e+04
    6.250000e-02   -1.562500e+00    1.824231e-08    4.287708e-08   -6.694448e+04   -2.119729e+04   -5.583095e+04
    6.250000e-02   -1.593750e+00    1.824907e-08    4.266247e-08   -6.701033e+04   -2.167080e+04   -5.550248e+04
    6.250000e-02   -1.625000e+00    1.836690e-08    4.238256e-08   -6.745469e+04   -2.206852e+04   -5.518518e+04
    6.250000e-02   -1.656250e+00    1.855141e-08    4.208034e-08   -6.858229e+04   -2.260633e+04   -5.457892e+04
    6.250000e-02   -1.687500e+00    1.895899e-08    4.174739e-08   -6.999983e+04   -2.319397e+04   -5.389811e+04
    6.250000e-02   -1.718750e+00    1.956972e-08    4.139406e-08   -7.211747e+04   -2.385721e+04   -5.326094e+04
    6.250000e-02   -1.750000e+00    2.041121e-08    4.105425e-08   -7.520440e+04   -2.452647e+04   -5.260490e+04
    6.250000e-02   -1.781250e+00    2.156676e-08    4.078224e-08   -7.937119e+04   -2.511130e+04   -5.180592e+04
    6.250000e-02   -1.812500e+00    2.315917e-08    4.062853e-08   -8.463037e+04   -2.607340e+04   -5.072581e+04
    6.250000e-02   -1.843750e+00    2.542265e-08    4.058989e-08   -9.148229e+04   -2.621054e+04   -5.058096e+04
    6.250000e-02   -1.875000e+00    2.809838e-08    4.099210e-08   -1.024492e+05   -2.590009e+04   -4.967049e+04
    6.250000e-02   -1.906250e+00    3.210642e-08    4.210285e-08   -1.168326e+05   -2.414086e+04   -4.765220e+04
    6.250000e-02   -1.937500e+00    3.832032e-08    4.444214e-08   -1.367776e+05   -1.911899e+04   -4.298475e+04
    6.250000e-02   -1.968750e+00    4.884451e-08    4.900426e-08   -1.586215e+05   -7.300721e+03   -2.919446e+04
    6.250000e-02   -2.000000e+00    6.695707e-08    5.608446e-08   -1.657681e+05   -4.228948e+03   -1.620766e+04
    9.375000e-02   -0.000000e+00   -1.452070e-07    7.518469e-08    2.927975e+05    5.977428e+03   -8.415635e+03
    9.375000e-02   -3.125000e-02   -1.290964e-07    6.284888e-08    2.854159e+05    9.425459e+03   -1.152492e+04
    9.375000e-02   -6.250000e-02   -1.167953e-07    5.206307e-08    2.718769e+05    1.633285e+04   -1.642025e+04
    9.375000e-02   -9.375000e-02   -1.068704e-07    4.303808e-08    2.553726e+05    2.217460e+04   -1.754442e+04
    9.375000e-02   -1.250000e-01   -9.837324e-08    3.558651e-08    2.383704e+05    2.631398e+04   -1.655320e+04
    9.375000e-02   -1.562500e-01   -9.073186e-08    2.942885e-08    2.216634e+05    2.906831e+04   -1.478424e+04
    9.375000e-02   -1.875000e-01   -8.370818e-08    2.435773e-08    2.051731e+05    3.061671e+04   -1.261322e+04
    9.375000e-02   -2.187500e-01   -7.703895e-08    2.018323e-08    1.892633e+05    3.121155e+04   -1.038097e+04
    9.375000e-02   -2.500000e-01   -7.060902e-08    1.674646e-08    1.738545e+05    3.120182e+04   -8.483004e+03
    9.375000e-02   -2.812500e-01   -6.442351e-08    1.395900e-08    1.586458e+05    3.071754e+04   -6.856181e+03
    9.375000e-02   -3.125000e-01   -5.841252e-08    1.174863e-08    1.437458e+05    2.994079e+04   -5.510674e+03
    9.375000e-02   -3.437500e-01   -5.255851e-08    1.006421e-08    1.291531e+05    2.883185e+04   -4.356368e+03
    9.375000e-02   -3.750000e-01   -4.679436e-08    8.838267e-09    1.150378e+05    2.758703e+04   -3.602418e+03
    9.375000e-02   -4.062500e-01   -4.118446e-08    8.042790e-09    1.011359e+05    2.619641e+04   -3.147723e+03
    9.375000e-02   -4.375000e-01   -3.570095e-08    7.646498e-09    8.761341e+04    2.468130e+04   -2.941990e+03
    9.375000e-02   -4.687500e-01   -3.033917e-08    7.612579e-09    7.451821e+04    2.312282e+04   -3.076297e+03
    9.375000e-02   -5.000000e-01   -2.514089e-08    7.918975e-09    6.176989e+04    2.146864e+04   -3.493413e+03
    9.375000e-02   -5.312500e-01   -2.010586e-08    8.536122e-09    4.941033e+04    1.984392e+04   -4.278994e+03
    9.375000e-02   -5.625000e-01   -1.528888e-08    9.461507e-09    3.733299e+04    1.815904e+04   -5.225577e+03
    9.375000e-02   -5.937500e-01   -1.062610e-08    1.066341e-08    2.585752e+04    1.651914e+04   -6.440981e+03
    9.375000e-02   -6.250000e-01   -6.166908e-09    1.212449e-08    1.484587e+04    1.492210e+04   -7.929338e+03
    9.375000e-02   -6.562500e-01   -1.928443e-09    1.383137e-08    4.321562e+03    1.337418e+04   -9.632101e+03
    9.375000e-02   -6.875000e-01    2.076749e-09    1.576871e-08   -5.668904e+03    1.181823e+04   -1.147792e+04
    9.375000e-02   -7.187500e-01    5.863517e-09    1.790738e-08   -1.500669e+04    1.030267e+04   -1.351442e+04
    9.375000e-02   -7.500000e-01    9.404689e-09    2.022449e-08   -2.370729e+04    8.761516e+03   -1.567964e+04
    9.375000e-02   -7.812500e-01    1.270944e-08    2.268235e-08   -3.167210e+04    7.244976e+03   -1.805794e+04
    9.375000e-02   -8.125000e-01    1.572666e-08    2.525755e-08   -3.906155e+04    5.803397e+03   -2.063303e+04
    9.375000e-02   -8.437500e-01    1.843126e-08    2.793956e-08   -4.589124e+04    4.370165e+03   -2.321994e+04
    9.375000e-02   -8.750000e-01    2.086387e-08    3.069710e-08   -5.197802e+04    2.957409e+03   -2.582916e+04
    9.375000e-02   -9.062500e-01    2.301974e-08    3.349835e-08   -5.734148e+04    1.506883e+03   -2.843227e+04
    9.375000e-02   -9.375000e-01    2.491761e-08    3.630280e-08   -6.193917e+04    6.770900e+01   -3.107939e+04
    9.375000e-02   -9.687500e-01    2.653579e-08    3.908215e-08   -6.588021e+04   -1.378838e+03   -3.370730e+04
    9.375000e-02   -1.000000e+00    2.789091e-08    4.180536e-08   -6.913901e+04   -2.806672e+03   -3.630101e+04
    9.375000e-02   -1.031250e+00    2.898158e-08    4.444710e-08   -7.177910e+04   -4.220710e+03   -3.881806e+04
    9.375000e-02   -1.062500e+00    2.982442e-08    4.698189e-08   -7.382697e+04   -5.576546e+03   -4.126214e+04
    9.375000e-02   -1.093750e+00    3.041589e-08    4.939598e-08   -7.539672e+04   -6.914454e+03   -4.353878e+04
    9.375000e-02   -1.125000e+00    3.079952e-08    5.167010e-08   -7.641874e+04   -8.277482e+03   -4.558369e+04
    9.375000e-02   -1.156250e+00    3.102679e-08    5.377219e-08   -7.685082e+04   -9.591936e+03   -4.751745e+04
    9.375000e-02   -1.187500e+00    3.108244e-08    5.568963e-08   -7.690755e+04   -1.083307e+04   -4.933544e+04
    9.375000e-02   -1.218750e+00    3.097547e-08    5.742189e-08   -7.668241e+04   -1.199934e+04   -5.095866e+04
    9.375000e-02   -1.250000e+00    3.073861e-08    5.896850e-08   -7.620056e+04   -1.308590e+04   -5.235843e+04
    9.375000e-02   -1.281250e+00    3.040552e-08    6.033087e-08   -7.548052e+04   -1.414466e+04   -5.348038e+04
    9.375000e-02   -1.312500e+00    3.003411e-08    6.149868e-08   -7.446239e+04   -1.515566e+04   -5.440144e+04
    9.375000e-02   -1.343750e+00    2.963477e-08    6.246771e-08   -7.328191e+04   -1.607634e+04   -5.519738e+04
    9.375000e-02   -1.375000e+00    2.920136e-08    6.325011e-08   -7.207409e+04   -1.695546e+04   -5.578773e+04
    9.375000e-02   -1.406250e+00    2.877288e-08    6.384730e-08   -7.080829e+04   -1.778807e+04   -5.623284e+04
    9.375000e-02   -1.437500e+00    2.834669e-08    6.426761e-08   -6.965663e+04   -1.854775e+04   -5.657870e+04
    9.375000e-02   -1.468750e+00    2.793074e-08    6.453461e-08   -6.871128e+04   -1.925942e+04   -5.671452e+04
    9.375000e-02   -1.500000e+00    2.758965e-08    6.465952e-08   -6.785076e+04   -1.993422e+04   -5.666410e+04
    9.375000e-02   -1.531250e+00    2.735360e-08    6.464909e-08   -6.712575e+04   -2.055906e+04   -5.652920e+04
    9.375000e-02   -1.562500e+00    2.722379e-08    6.452109e-08   -6.669026e+04   -2.111501e+04   -5.633037e+04
    9.375000e-02   -1.593750e+00    2.721113e-08    6.430200e-08   -6.664039e+04   -2.164512e+04   -5.601284e+04
    9.375000e-02   -1.625000e+00    2.735962e-08    6.401255e-08   -6.700563e+04   -2.208805e+04   -5.563636e+04
    9.375000e-02   -1.656250e+00    2.768228e-08    6.368942e-08   -6.793371e+04   -2.254078e+04   -5.508778e+04
    9.375000e-02   -1.687500e+00    2.827187e-08    6.335124e-08   -6.933791e+04   -2.297377e+04   -5.445241e+04
    9.375000e-02   -1.718750e+00    2.916850e-08    6.302828e-08   -7.143494e+04   -2.334313e+04   -5.378319e+04
    9.375000e-02   -1.750000e+00    3.043691e-08    6.277116e-08   -7.441256e+04   -2.358223e+04   -5.302807e+04
    9.375000e-02   -1.781250e+00    3.218252e-08    6.264659e-08   -7.843455e+04   -2.364965e+04   -5.212141e+04
    9.375000e-02   -1.812500e+00    3.455709e-08    6.273829e-08   -8.370033e+04   -2.355621e+04   -5.096757e+04
    9.375000e-02   -1.843750e+00    3.780983e-08    6.314938e-08   -9.061556e+04   -2.258575e+04   -4.984186e+04
    9.375000e-02   -1.875000e+00    4.210023e-08    6.415755e-08   -1.003337e+05   -2.057506e+04   -4.771437e+04
    9.375000e-02   -1.906250e+00    4.819881e-08    6.607787e-08   -1.124976e+05   -1.681328e+04   -4.360182e+04
    9.375000e-02   -1.937500e+00    5.715248e-08    6.932336e-08   -1.262489e+05   -1.059745e+04   -3.558509e+04
    9.375000e-02   -1.968750e+00    7.053060e-08    7.419261e-08   -1.380945e+05   -3.575161e+03   -2.113517e+04
    9.375000e-02   -2.000000e+00    9.020415e-08    8.034539e-08   -1.397776e+05   -2.308107e+03   -1.105566e+04
    1.250000e-01   -0.000000e+00   -1.879544e-07    9.328777e-08    2.846481e+05    2.141183e+03   -3.489539e+03
    1.250000e-01   -3.125000e-02   -1.710862e-07    8.087235e-08    2.797674e+05    4.596244e+03   -6.165350e+03
    1.250000e-01   -6.250000e-02   -1.566603e-07    6.946458e-08    2.689041e+05    9.426029e+03   -1.036316e+04
    1.250000e-01   -9.375000e-02   -1.441469e-07    5.941494e-08    2.546346e+05    1.425079e+04   -1.239053e+04